<?xml version="1.0" encoding="UTF-8"?>

<!-- generated on Thu Jan  7 08:49:53 2021 by Eclipse SUMO sumo Version 1.7.0
<configuration xmlns:xsi="http://www.w3.org/2001/XMLSchema-instance" xsi:noNamespaceSchemaLocation="http://sumo.dlr.de/xsd/sumoConfiguration.xsd">

    <input>
        <net-file value="laneMerging.net.xml"/>
        <route-files value="laneMerging.rou.xml"/>
        <additional-files value="laneMerging.add.xml"/>
    </input>

    <output>
        <tripinfo-output value="tripinfo_fcfg.xml"/>
    </output>

    <report>
        <no-warnings value="true"/>
        <duration-log.disable value="true"/>
        <no-step-log value="true"/>
    </report>

    <traci_server>
        <remote-port value="56000"/>
    </traci_server>

    <gui_only>
        <gui-settings-file value="laneMerging.view.xml"/>
        <start value="true"/>
    </gui_only>

</configuration>
-->

<tripinfos xmlns:xsi="http://www.w3.org/2001/XMLSchema-instance" xsi:noNamespaceSchemaLocation="http://sumo.dlr.de/xsd/tripinfo_file.xsd">
    <tripinfo id="A_1" depart="5.00" departLane="E1_1" departPos="5.10" departSpeed="13.12" departDelay="0.00" arrival="59.00" arrivalLane="E2_0" arrivalPos="300.00" arrivalSpeed="14.72" duration="54.00" routeLength="794.90" waitingTime="0.00" waitingCount="0" stopTime="0.00" timeLoss="0.01" rerouteNo="0" devices="tripinfo_A_1" vType="typeA" speedFactor="1.06" vaporized=""/>
    <tripinfo id="A_2" depart="7.00" departLane="E1_1" departPos="5.10" departSpeed="9.29" departDelay="0.00" arrival="69.00" arrivalLane="E2_0" arrivalPos="300.00" arrivalSpeed="13.03" duration="62.00" routeLength="794.90" waitingTime="0.00" waitingCount="0" stopTime="0.00" timeLoss="0.23" rerouteNo="0" devices="tripinfo_A_2" vType="typeA" speedFactor="0.94" vaporized=""/>
    <tripinfo id="A_3" depart="18.00" departLane="E1_1" departPos="5.10" departSpeed="0.64" departDelay="0.00" arrival="79.00" arrivalLane="E2_0" arrivalPos="300.00" arrivalSpeed="14.03" duration="61.00" routeLength="794.90" waitingTime="0.00" waitingCount="0" stopTime="0.00" timeLoss="3.79" rerouteNo="0" devices="tripinfo_A_3" vType="typeA" speedFactor="1.01" vaporized=""/>
    <tripinfo id="A_4" depart="21.00" departLane="E1_1" departPos="5.10" departSpeed="4.56" departDelay="1.00" arrival="82.00" arrivalLane="E2_0" arrivalPos="300.00" arrivalSpeed="15.04" duration="61.00" routeLength="794.90" waitingTime="0.00" waitingCount="0" stopTime="0.00" timeLoss="7.20" rerouteNo="0" devices="tripinfo_A_4" vType="typeA" speedFactor="1.08" vaporized=""/>
    <tripinfo id="B_1" depart="22.00" departLane="E1_0" departPos="5.10" departSpeed="0.62" departDelay="0.00" arrival="91.00" arrivalLane="E2_0" arrivalPos="300.00" arrivalSpeed="14.31" duration="69.00" routeLength="794.90" waitingTime="1.00" waitingCount="1" stopTime="0.00" timeLoss="12.77" rerouteNo="0" devices="tripinfo_B_1" vType="typeB" speedFactor="1.03" vaporized=""/>
    <tripinfo id="A_5" depart="26.00" departLane="E1_1" departPos="5.10" departSpeed="7.92" departDelay="0.00" arrival="97.00" arrivalLane="E2_0" arrivalPos="300.00" arrivalSpeed="14.53" duration="71.00" routeLength="794.90" waitingTime="7.00" waitingCount="1" stopTime="0.00" timeLoss="15.35" rerouteNo="0" devices="tripinfo_A_5" vType="typeA" speedFactor="1.05" vaporized=""/>
    <tripinfo id="B_2" depart="25.00" departLane="E1_0" departPos="5.10" departSpeed="2.86" departDelay="1.00" arrival="107.00" arrivalLane="E2_0" arrivalPos="300.00" arrivalSpeed="11.54" duration="82.00" routeLength="794.90" waitingTime="4.00" waitingCount="1" stopTime="0.00" timeLoss="12.57" rerouteNo="0" devices="tripinfo_B_2" vType="typeB" speedFactor="0.83" vaporized=""/>
    <tripinfo id="A_6" depart="33.00" departLane="E1_1" departPos="5.10" departSpeed="9.17" departDelay="0.00" arrival="114.00" arrivalLane="E2_0" arrivalPos="300.00" arrivalSpeed="12.31" duration="81.00" routeLength="794.90" waitingTime="8.00" waitingCount="1" stopTime="0.00" timeLoss="15.48" rerouteNo="0" devices="tripinfo_A_6" vType="typeA" speedFactor="0.89" vaporized=""/>
    <tripinfo id="B_3" depart="53.00" departLane="E1_0" departPos="5.10" departSpeed="0.08" departDelay="0.00" arrival="118.00" arrivalLane="E2_0" arrivalPos="300.00" arrivalSpeed="13.03" duration="65.00" routeLength="794.90" waitingTime="0.00" waitingCount="0" stopTime="0.00" timeLoss="3.81" rerouteNo="0" devices="tripinfo_B_3" vType="typeB" speedFactor="0.94" vaporized=""/>
    <tripinfo id="A_7" depart="56.00" departLane="E1_1" departPos="5.10" departSpeed="8.01" departDelay="0.00" arrival="128.00" arrivalLane="E2_0" arrivalPos="300.00" arrivalSpeed="11.90" duration="72.00" routeLength="794.90" waitingTime="0.00" waitingCount="0" stopTime="0.00" timeLoss="4.64" rerouteNo="0" devices="tripinfo_A_7" vType="typeA" speedFactor="0.86" vaporized=""/>
    <tripinfo id="A_8" depart="67.00" departLane="E1_1" departPos="5.10" departSpeed="7.06" departDelay="0.00" arrival="129.00" arrivalLane="E2_0" arrivalPos="300.00" arrivalSpeed="13.41" duration="62.00" routeLength="794.90" waitingTime="0.00" waitingCount="0" stopTime="0.00" timeLoss="9.48" rerouteNo="0" devices="tripinfo_A_8" vType="typeA" speedFactor="1.09" vaporized=""/>
    <tripinfo id="B_4" depart="90.00" departLane="E1_0" departPos="5.10" departSpeed="8.24" departDelay="0.00" arrival="146.00" arrivalLane="E2_0" arrivalPos="300.00" arrivalSpeed="14.54" duration="56.00" routeLength="794.90" waitingTime="0.00" waitingCount="0" stopTime="0.00" timeLoss="0.70" rerouteNo="0" devices="tripinfo_B_4" vType="typeB" speedFactor="1.05" vaporized=""/>
    <tripinfo id="A_9" depart="83.00" departLane="E1_1" departPos="5.10" departSpeed="6.44" departDelay="0.00" arrival="156.00" arrivalLane="E2_0" arrivalPos="300.00" arrivalSpeed="14.26" duration="73.00" routeLength="794.90" waitingTime="8.00" waitingCount="1" stopTime="0.00" timeLoss="16.62" rerouteNo="0" devices="tripinfo_A_9" vType="typeA" speedFactor="1.03" vaporized=""/>
    <tripinfo id="A_10" depart="92.00" departLane="E1_1" departPos="5.10" departSpeed="4.13" departDelay="0.00" arrival="157.00" arrivalLane="E2_0" arrivalPos="300.00" arrivalSpeed="15.60" duration="65.00" routeLength="794.90" waitingTime="2.00" waitingCount="1" stopTime="0.00" timeLoss="13.86" rerouteNo="0" devices="tripinfo_A_10" vType="typeA" speedFactor="1.12" vaporized=""/>
    <tripinfo id="B_5" depart="102.00" departLane="E1_0" departPos="5.10" departSpeed="0.83" departDelay="0.00" arrival="164.00" arrivalLane="E2_0" arrivalPos="300.00" arrivalSpeed="13.77" duration="62.00" routeLength="794.90" waitingTime="0.00" waitingCount="0" stopTime="0.00" timeLoss="3.98" rerouteNo="0" devices="tripinfo_B_5" vType="typeB" speedFactor="0.99" vaporized=""/>
    <tripinfo id="A_11" depart="121.00" departLane="E1_1" departPos="5.10" departSpeed="11.27" departDelay="0.00" arrival="183.00" arrivalLane="E2_0" arrivalPos="300.00" arrivalSpeed="12.87" duration="62.00" routeLength="794.90" waitingTime="0.00" waitingCount="0" stopTime="0.00" timeLoss="0.01" rerouteNo="0" devices="tripinfo_A_11" vType="typeA" speedFactor="0.93" vaporized=""/>
    <tripinfo id="B_6" depart="125.00" departLane="E1_0" departPos="5.10" departSpeed="3.93" departDelay="0.00" arrival="192.00" arrivalLane="E2_0" arrivalPos="300.00" arrivalSpeed="12.20" duration="67.00" routeLength="794.90" waitingTime="0.00" waitingCount="0" stopTime="0.00" timeLoss="1.63" rerouteNo="0" devices="tripinfo_B_6" vType="typeB" speedFactor="0.88" vaporized=""/>
    <tripinfo id="A_12" depart="130.00" departLane="E1_1" departPos="5.10" departSpeed="8.94" departDelay="0.00" arrival="200.00" arrivalLane="E2_0" arrivalPos="300.00" arrivalSpeed="13.08" duration="70.00" routeLength="794.90" waitingTime="2.00" waitingCount="1" stopTime="0.00" timeLoss="9.10" rerouteNo="0" devices="tripinfo_A_12" vType="typeA" speedFactor="0.94" vaporized=""/>
    <tripinfo id="B_7" depart="137.00" departLane="E1_0" departPos="5.10" departSpeed="8.25" departDelay="0.00" arrival="204.00" arrivalLane="E2_0" arrivalPos="300.00" arrivalSpeed="16.09" duration="67.00" routeLength="794.90" waitingTime="8.00" waitingCount="1" stopTime="0.00" timeLoss="17.17" rerouteNo="0" devices="tripinfo_B_7" vType="typeB" speedFactor="1.16" vaporized=""/>
    <tripinfo id="A_13" depart="134.00" departLane="E1_1" departPos="5.10" departSpeed="0.60" departDelay="0.00" arrival="213.00" arrivalLane="E2_0" arrivalPos="300.00" arrivalSpeed="13.00" duration="79.00" routeLength="794.90" waitingTime="7.00" waitingCount="1" stopTime="0.00" timeLoss="17.87" rerouteNo="0" devices="tripinfo_A_13" vType="typeA" speedFactor="0.94" vaporized=""/>
    <tripinfo id="A_14" depart="141.00" departLane="E1_1" departPos="5.10" departSpeed="4.34" departDelay="0.00" arrival="215.00" arrivalLane="E2_0" arrivalPos="300.00" arrivalSpeed="14.14" duration="74.00" routeLength="794.90" waitingTime="6.00" waitingCount="1" stopTime="0.00" timeLoss="17.23" rerouteNo="0" devices="tripinfo_A_14" vType="typeA" speedFactor="1.02" vaporized=""/>
    <tripinfo id="A_15" depart="145.00" departLane="E1_1" departPos="5.10" departSpeed="12.65" departDelay="0.00" arrival="222.00" arrivalLane="E2_0" arrivalPos="300.00" arrivalSpeed="13.54" duration="77.00" routeLength="794.90" waitingTime="6.00" waitingCount="2" stopTime="0.00" timeLoss="17.55" rerouteNo="0" devices="tripinfo_A_15" vType="typeA" speedFactor="0.98" vaporized=""/>
    <tripinfo id="A_16" depart="151.00" departLane="E1_1" departPos="5.10" departSpeed="10.19" departDelay="0.00" arrival="225.00" arrivalLane="E2_0" arrivalPos="300.00" arrivalSpeed="12.36" duration="74.00" routeLength="794.90" waitingTime="1.00" waitingCount="1" stopTime="0.00" timeLoss="9.27" rerouteNo="0" devices="tripinfo_A_16" vType="typeA" speedFactor="0.89" vaporized=""/>
    <tripinfo id="A_17" depart="174.00" departLane="E1_1" departPos="5.10" departSpeed="4.81" departDelay="0.00" arrival="241.00" arrivalLane="E2_0" arrivalPos="300.00" arrivalSpeed="12.12" duration="67.00" routeLength="794.90" waitingTime="0.00" waitingCount="0" stopTime="0.00" timeLoss="1.18" rerouteNo="0" devices="tripinfo_A_17" vType="typeA" speedFactor="0.87" vaporized=""/>
    <tripinfo id="B_8" depart="144.00" departLane="E1_0" departPos="5.10" departSpeed="8.89" departDelay="0.00" arrival="248.00" arrivalLane="E2_0" arrivalPos="300.00" arrivalSpeed="14.03" duration="104.00" routeLength="794.90" waitingTime="37.00" waitingCount="1" stopTime="0.00" timeLoss="46.99" rerouteNo="0" devices="tripinfo_B_8" vType="typeB" speedFactor="1.01" vaporized=""/>
    <tripinfo id="B_9" depart="169.00" departLane="E1_0" departPos="5.10" departSpeed="10.18" departDelay="0.00" arrival="254.00" arrivalLane="E2_0" arrivalPos="300.00" arrivalSpeed="11.47" duration="85.00" routeLength="794.90" waitingTime="9.00" waitingCount="1" stopTime="0.00" timeLoss="14.93" rerouteNo="0" devices="tripinfo_B_9" vType="typeB" speedFactor="0.83" vaporized=""/>
    <tripinfo id="B_10" depart="178.00" departLane="E1_0" departPos="5.10" departSpeed="6.93" departDelay="0.00" arrival="255.00" arrivalLane="E2_0" arrivalPos="300.00" arrivalSpeed="12.74" duration="77.00" routeLength="794.90" waitingTime="5.00" waitingCount="1" stopTime="0.00" timeLoss="14.41" rerouteNo="0" devices="tripinfo_B_10" vType="typeB" speedFactor="0.92" vaporized=""/>
    <tripinfo id="A_18" depart="186.00" departLane="E1_1" departPos="5.10" departSpeed="3.12" departDelay="0.00" arrival="261.00" arrivalLane="E2_0" arrivalPos="300.00" arrivalSpeed="13.18" duration="75.00" routeLength="794.90" waitingTime="5.00" waitingCount="1" stopTime="0.00" timeLoss="14.43" rerouteNo="0" devices="tripinfo_A_18" vType="typeA" speedFactor="0.95" vaporized=""/>
    <tripinfo id="B_11" depart="194.00" departLane="E1_0" departPos="5.10" departSpeed="0.51" departDelay="0.00" arrival="264.00" arrivalLane="E2_0" arrivalPos="300.00" arrivalSpeed="15.72" duration="70.00" routeLength="794.90" waitingTime="6.00" waitingCount="1" stopTime="0.00" timeLoss="19.34" rerouteNo="0" devices="tripinfo_B_11" vType="typeB" speedFactor="1.13" vaporized=""/>
    <tripinfo id="A_19" depart="197.00" departLane="E1_1" departPos="5.10" departSpeed="3.90" departDelay="0.00" arrival="274.00" arrivalLane="E2_0" arrivalPos="300.00" arrivalSpeed="12.94" duration="77.00" routeLength="794.90" waitingTime="5.00" waitingCount="1" stopTime="0.00" timeLoss="14.65" rerouteNo="0" devices="tripinfo_A_19" vType="typeA" speedFactor="0.93" vaporized=""/>
    <tripinfo id="A_20" depart="204.00" departLane="E1_1" departPos="5.10" departSpeed="12.52" departDelay="0.00" arrival="275.00" arrivalLane="E2_0" arrivalPos="300.00" arrivalSpeed="14.44" duration="71.00" routeLength="794.90" waitingTime="5.00" waitingCount="1" stopTime="0.00" timeLoss="22.09" rerouteNo="0" devices="tripinfo_A_20" vType="typeA" speedFactor="1.18" vaporized=""/>
    <tripinfo id="A_21" depart="207.00" departLane="E1_1" departPos="5.10" departSpeed="2.55" departDelay="0.00" arrival="277.00" arrivalLane="E2_0" arrivalPos="300.00" arrivalSpeed="15.94" duration="70.00" routeLength="794.90" waitingTime="4.00" waitingCount="1" stopTime="0.00" timeLoss="19.55" rerouteNo="0" devices="tripinfo_A_21" vType="typeA" speedFactor="1.15" vaporized=""/>
    <tripinfo id="A_22" depart="215.00" departLane="E1_1" departPos="5.10" departSpeed="13.36" departDelay="0.00" arrival="278.00" arrivalLane="E2_0" arrivalPos="300.00" arrivalSpeed="13.96" duration="63.00" routeLength="794.90" waitingTime="0.00" waitingCount="0" stopTime="0.00" timeLoss="5.86" rerouteNo="0" devices="tripinfo_A_22" vType="typeA" speedFactor="1.01" vaporized=""/>
    <tripinfo id="A_23" depart="216.00" departLane="E1_1" departPos="5.10" departSpeed="0.49" departDelay="0.00" arrival="280.00" arrivalLane="E2_0" arrivalPos="300.00" arrivalSpeed="16.28" duration="64.00" routeLength="794.90" waitingTime="0.00" waitingCount="0" stopTime="0.00" timeLoss="14.37" rerouteNo="0" devices="tripinfo_A_23" vType="typeA" speedFactor="1.17" vaporized=""/>
    <tripinfo id="B_12" depart="218.00" departLane="E1_0" departPos="5.10" departSpeed="4.69" departDelay="0.00" arrival="288.00" arrivalLane="E2_0" arrivalPos="300.00" arrivalSpeed="14.16" duration="70.00" routeLength="794.90" waitingTime="4.00" waitingCount="1" stopTime="0.00" timeLoss="13.36" rerouteNo="0" devices="tripinfo_B_12" vType="typeB" speedFactor="1.02" vaporized=""/>
    <tripinfo id="B_13" depart="226.00" departLane="E1_0" departPos="5.10" departSpeed="6.74" departDelay="0.00" arrival="290.00" arrivalLane="E2_0" arrivalPos="300.00" arrivalSpeed="16.39" duration="64.00" routeLength="794.90" waitingTime="2.00" waitingCount="1" stopTime="0.00" timeLoss="14.53" rerouteNo="0" devices="tripinfo_B_13" vType="typeB" speedFactor="1.18" vaporized=""/>
    <tripinfo id="A_24" depart="219.00" departLane="E1_1" departPos="5.10" departSpeed="1.79" departDelay="1.00" arrival="298.00" arrivalLane="E2_0" arrivalPos="300.00" arrivalSpeed="13.82" duration="79.00" routeLength="794.90" waitingTime="10.00" waitingCount="1" stopTime="0.00" timeLoss="21.37" rerouteNo="0" devices="tripinfo_A_24" vType="typeA" speedFactor="0.99" vaporized=""/>
    <tripinfo id="A_25" depart="226.00" departLane="E1_1" departPos="5.10" departSpeed="1.69" departDelay="0.00" arrival="301.00" arrivalLane="E2_0" arrivalPos="300.00" arrivalSpeed="13.52" duration="75.00" routeLength="794.90" waitingTime="5.00" waitingCount="1" stopTime="0.00" timeLoss="16.10" rerouteNo="0" devices="tripinfo_A_25" vType="typeA" speedFactor="0.97" vaporized=""/>
    <tripinfo id="B_14" depart="248.00" departLane="E1_0" departPos="5.10" departSpeed="14.77" departDelay="0.00" arrival="304.00" arrivalLane="E2_0" arrivalPos="300.00" arrivalSpeed="15.31" duration="56.00" routeLength="794.90" waitingTime="0.00" waitingCount="0" stopTime="0.00" timeLoss="3.95" rerouteNo="0" devices="tripinfo_B_14" vType="typeB" speedFactor="1.10" vaporized=""/>
    <tripinfo id="A_26" depart="260.00" departLane="E1_1" departPos="5.10" departSpeed="3.30" departDelay="0.00" arrival="326.00" arrivalLane="E2_0" arrivalPos="300.00" arrivalSpeed="12.51" duration="66.00" routeLength="794.90" waitingTime="0.00" waitingCount="0" stopTime="0.00" timeLoss="1.90" rerouteNo="0" devices="tripinfo_A_26" vType="typeA" speedFactor="0.90" vaporized=""/>
    <tripinfo id="A_27" depart="262.00" departLane="E1_1" departPos="5.10" departSpeed="3.19" departDelay="0.00" arrival="327.00" arrivalLane="E2_0" arrivalPos="300.00" arrivalSpeed="14.01" duration="65.00" routeLength="794.90" waitingTime="0.00" waitingCount="0" stopTime="0.00" timeLoss="9.39" rerouteNo="0" devices="tripinfo_A_27" vType="typeA" speedFactor="1.03" vaporized=""/>
    <tripinfo id="A_28" depart="279.00" departLane="E1_1" departPos="5.10" departSpeed="2.23" departDelay="0.00" arrival="342.00" arrivalLane="E2_0" arrivalPos="300.00" arrivalSpeed="13.29" duration="63.00" routeLength="794.90" waitingTime="0.00" waitingCount="0" stopTime="0.00" timeLoss="2.67" rerouteNo="0" devices="tripinfo_A_28" vType="typeA" speedFactor="0.96" vaporized=""/>
    <tripinfo id="B_15" depart="287.00" departLane="E1_0" departPos="5.10" departSpeed="8.67" departDelay="0.00" arrival="350.00" arrivalLane="E2_0" arrivalPos="300.00" arrivalSpeed="15.17" duration="63.00" routeLength="794.90" waitingTime="1.00" waitingCount="1" stopTime="0.00" timeLoss="10.00" rerouteNo="0" devices="tripinfo_B_15" vType="typeB" speedFactor="1.09" vaporized=""/>
    <tripinfo id="A_29" depart="297.00" departLane="E1_1" departPos="5.10" departSpeed="3.48" departDelay="0.00" arrival="355.00" arrivalLane="E2_0" arrivalPos="300.00" arrivalSpeed="14.41" duration="58.00" routeLength="794.90" waitingTime="0.00" waitingCount="0" stopTime="0.00" timeLoss="2.46" rerouteNo="0" devices="tripinfo_A_29" vType="typeA" speedFactor="1.04" vaporized=""/>
    <tripinfo id="A_30" depart="303.00" departLane="E1_1" departPos="5.10" departSpeed="11.76" departDelay="0.00" arrival="359.00" arrivalLane="E2_0" arrivalPos="300.00" arrivalSpeed="14.49" duration="56.00" routeLength="794.90" waitingTime="0.00" waitingCount="0" stopTime="0.00" timeLoss="0.73" rerouteNo="0" devices="tripinfo_A_30" vType="typeA" speedFactor="1.04" vaporized=""/>
    <tripinfo id="B_16" depart="307.00" departLane="E1_0" departPos="5.10" departSpeed="9.26" departDelay="0.00" arrival="367.00" arrivalLane="E2_0" arrivalPos="300.00" arrivalSpeed="13.85" duration="60.00" routeLength="794.90" waitingTime="0.00" waitingCount="0" stopTime="0.00" timeLoss="1.83" rerouteNo="0" devices="tripinfo_B_16" vType="typeB" speedFactor="1.00" vaporized=""/>
    <tripinfo id="A_31" depart="307.00" departLane="E1_1" departPos="5.10" departSpeed="1.35" departDelay="0.00" arrival="375.00" arrivalLane="E2_0" arrivalPos="300.00" arrivalSpeed="15.11" duration="68.00" routeLength="794.90" waitingTime="3.00" waitingCount="1" stopTime="0.00" timeLoss="14.86" rerouteNo="0" devices="tripinfo_A_31" vType="typeA" speedFactor="1.09" vaporized=""/>
    <tripinfo id="B_17" depart="334.00" departLane="E1_0" departPos="5.10" departSpeed="8.95" departDelay="0.00" arrival="398.00" arrivalLane="E2_0" arrivalPos="300.00" arrivalSpeed="12.51" duration="64.00" routeLength="794.90" waitingTime="0.00" waitingCount="0" stopTime="0.00" timeLoss="0.21" rerouteNo="0" devices="tripinfo_B_17" vType="typeB" speedFactor="0.90" vaporized=""/>
    <tripinfo id="A_32" depart="336.00" departLane="E1_1" departPos="5.10" departSpeed="7.26" departDelay="0.00" arrival="408.00" arrivalLane="E2_0" arrivalPos="300.00" arrivalSpeed="12.18" duration="72.00" routeLength="794.90" waitingTime="0.00" waitingCount="0" stopTime="0.00" timeLoss="6.35" rerouteNo="0" devices="tripinfo_A_32" vType="typeA" speedFactor="0.88" vaporized=""/>
    <tripinfo id="B_18" depart="368.00" departLane="E1_0" departPos="5.10" departSpeed="15.59" departDelay="0.00" arrival="417.00" arrivalLane="E2_0" arrivalPos="300.00" arrivalSpeed="16.24" duration="49.00" routeLength="794.90" waitingTime="0.00" waitingCount="0" stopTime="0.00" timeLoss="0.00" rerouteNo="0" devices="tripinfo_B_18" vType="typeB" speedFactor="1.17" vaporized=""/>
    <tripinfo id="A_33" depart="357.00" departLane="E1_1" departPos="5.10" departSpeed="8.17" departDelay="0.00" arrival="433.00" arrivalLane="E2_0" arrivalPos="300.00" arrivalSpeed="11.81" duration="76.00" routeLength="794.90" waitingTime="2.00" waitingCount="1" stopTime="0.00" timeLoss="8.63" rerouteNo="0" devices="tripinfo_A_33" vType="typeA" speedFactor="0.85" vaporized=""/>
    <tripinfo id="A_34" depart="362.00" departLane="E1_1" departPos="5.10" departSpeed="11.10" departDelay="0.00" arrival="435.00" arrivalLane="E2_0" arrivalPos="300.00" arrivalSpeed="11.87" duration="73.00" routeLength="794.90" waitingTime="0.00" waitingCount="0" stopTime="0.00" timeLoss="5.62" rerouteNo="0" devices="tripinfo_A_34" vType="typeA" speedFactor="0.85" vaporized=""/>
    <tripinfo id="B_19" depart="386.00" departLane="E1_0" departPos="5.10" departSpeed="4.35" departDelay="0.00" arrival="445.00" arrivalLane="E2_0" arrivalPos="300.00" arrivalSpeed="14.12" duration="59.00" routeLength="794.90" waitingTime="0.00" waitingCount="0" stopTime="0.00" timeLoss="1.92" rerouteNo="0" devices="tripinfo_B_19" vType="typeB" speedFactor="1.02" vaporized=""/>
    <tripinfo id="B_20" depart="391.00" departLane="E1_0" departPos="5.10" departSpeed="7.50" departDelay="0.00" arrival="446.00" arrivalLane="E2_0" arrivalPos="300.00" arrivalSpeed="15.22" duration="55.00" routeLength="794.90" waitingTime="0.00" waitingCount="0" stopTime="0.00" timeLoss="2.59" rerouteNo="0" devices="tripinfo_B_20" vType="typeB" speedFactor="1.10" vaporized=""/>
    <tripinfo id="A_35" depart="394.00" departLane="E1_1" departPos="5.10" departSpeed="8.08" departDelay="0.00" arrival="455.00" arrivalLane="E2_0" arrivalPos="300.00" arrivalSpeed="13.93" duration="61.00" routeLength="794.90" waitingTime="0.00" waitingCount="0" stopTime="0.00" timeLoss="3.20" rerouteNo="0" devices="tripinfo_A_35" vType="typeA" speedFactor="1.00" vaporized=""/>
    <tripinfo id="A_36" depart="395.00" departLane="E1_1" departPos="5.10" departSpeed="2.33" departDelay="0.00" arrival="457.00" arrivalLane="E2_0" arrivalPos="300.00" arrivalSpeed="13.83" duration="62.00" routeLength="794.90" waitingTime="0.00" waitingCount="0" stopTime="0.00" timeLoss="3.94" rerouteNo="0" devices="tripinfo_A_36" vType="typeA" speedFactor="1.00" vaporized=""/>
    <tripinfo id="B_21" depart="395.00" departLane="E1_0" departPos="5.10" departSpeed="11.92" departDelay="0.00" arrival="468.00" arrivalLane="E2_0" arrivalPos="300.00" arrivalSpeed="12.49" duration="73.00" routeLength="794.90" waitingTime="2.00" waitingCount="1" stopTime="0.00" timeLoss="9.12" rerouteNo="0" devices="tripinfo_B_21" vType="typeB" speedFactor="0.90" vaporized=""/>
    <tripinfo id="A_37" depart="401.00" departLane="E1_1" departPos="5.10" departSpeed="2.91" departDelay="0.00" arrival="470.00" arrivalLane="E2_0" arrivalPos="300.00" arrivalSpeed="15.87" duration="69.00" routeLength="794.90" waitingTime="7.00" waitingCount="1" stopTime="0.00" timeLoss="18.86" rerouteNo="0" devices="tripinfo_A_37" vType="typeA" speedFactor="1.14" vaporized=""/>
    <tripinfo id="B_22" depart="401.00" departLane="E1_0" departPos="5.10" departSpeed="9.12" departDelay="0.00" arrival="478.00" arrivalLane="E2_0" arrivalPos="300.00" arrivalSpeed="14.22" duration="77.00" routeLength="794.90" waitingTime="9.00" waitingCount="2" stopTime="0.00" timeLoss="20.51" rerouteNo="0" devices="tripinfo_B_22" vType="typeB" speedFactor="1.02" vaporized=""/>
    <tripinfo id="A_38" depart="403.00" departLane="E1_1" departPos="5.10" departSpeed="0.37" departDelay="1.00" arrival="487.00" arrivalLane="E2_0" arrivalPos="300.00" arrivalSpeed="13.47" duration="84.00" routeLength="794.90" waitingTime="10.00" waitingCount="2" stopTime="0.00" timeLoss="24.32" rerouteNo="0" devices="tripinfo_A_38" vType="typeA" speedFactor="0.97" vaporized=""/>
    <tripinfo id="A_39" depart="406.00" departLane="E1_1" departPos="5.10" departSpeed="1.01" departDelay="3.00" arrival="488.00" arrivalLane="E2_0" arrivalPos="300.00" arrivalSpeed="14.97" duration="82.00" routeLength="794.90" waitingTime="10.00" waitingCount="2" stopTime="0.00" timeLoss="28.94" rerouteNo="0" devices="tripinfo_A_39" vType="typeA" speedFactor="1.08" vaporized=""/>
    <tripinfo id="A_40" depart="409.00" departLane="E1_1" departPos="5.10" departSpeed="5.18" departDelay="1.00" arrival="490.00" arrivalLane="E2_0" arrivalPos="300.00" arrivalSpeed="15.55" duration="81.00" routeLength="794.90" waitingTime="10.00" waitingCount="2" stopTime="0.00" timeLoss="29.24" rerouteNo="0" devices="tripinfo_A_40" vType="typeA" speedFactor="1.12" vaporized=""/>
    <tripinfo id="B_23" depart="412.00" departLane="E1_0" departPos="5.10" departSpeed="4.43" departDelay="0.00" arrival="498.00" arrivalLane="E2_0" arrivalPos="300.00" arrivalSpeed="14.11" duration="86.00" routeLength="794.90" waitingTime="16.00" waitingCount="2" stopTime="0.00" timeLoss="29.21" rerouteNo="0" devices="tripinfo_B_23" vType="typeB" speedFactor="1.02" vaporized=""/>
    <tripinfo id="A_41" depart="413.00" departLane="E1_1" departPos="5.10" departSpeed="4.65" departDelay="0.00" arrival="507.00" arrivalLane="E2_0" arrivalPos="300.00" arrivalSpeed="13.71" duration="94.00" routeLength="794.90" waitingTime="19.00" waitingCount="2" stopTime="0.00" timeLoss="35.05" rerouteNo="0" devices="tripinfo_A_41" vType="typeA" speedFactor="0.99" vaporized=""/>
    <tripinfo id="B_24" depart="414.00" departLane="E1_0" departPos="5.10" departSpeed="1.12" departDelay="0.00" arrival="513.00" arrivalLane="E2_0" arrivalPos="300.00" arrivalSpeed="13.02" duration="99.00" routeLength="794.90" waitingTime="23.00" waitingCount="2" stopTime="0.00" timeLoss="37.93" rerouteNo="0" devices="tripinfo_B_24" vType="typeB" speedFactor="0.94" vaporized=""/>
    <tripinfo id="A_42" depart="415.00" departLane="E1_1" departPos="5.10" departSpeed="6.95" departDelay="0.00" arrival="521.00" arrivalLane="E2_0" arrivalPos="300.00" arrivalSpeed="12.26" duration="106.00" routeLength="794.90" waitingTime="24.00" waitingCount="3" stopTime="0.00" timeLoss="40.29" rerouteNo="0" devices="tripinfo_A_42" vType="typeA" speedFactor="0.88" vaporized=""/>
    <tripinfo id="B_25" depart="419.00" departLane="E1_0" departPos="5.10" departSpeed="2.61" departDelay="0.00" arrival="528.00" arrivalLane="E2_0" arrivalPos="300.00" arrivalSpeed="12.60" duration="109.00" routeLength="794.90" waitingTime="30.00" waitingCount="3" stopTime="0.00" timeLoss="45.50" rerouteNo="0" devices="tripinfo_B_25" vType="typeB" speedFactor="0.91" vaporized=""/>
    <tripinfo id="B_26" depart="424.00" departLane="E1_0" departPos="5.10" departSpeed="2.30" departDelay="0.00" arrival="530.00" arrivalLane="E2_0" arrivalPos="300.00" arrivalSpeed="12.70" duration="106.00" routeLength="794.90" waitingTime="26.00" waitingCount="3" stopTime="0.00" timeLoss="42.62" rerouteNo="0" devices="tripinfo_B_26" vType="typeB" speedFactor="0.91" vaporized=""/>
    <tripinfo id="B_27" depart="432.00" departLane="E1_0" departPos="5.10" departSpeed="0.68" departDelay="0.00" arrival="531.00" arrivalLane="E2_0" arrivalPos="300.00" arrivalSpeed="14.31" duration="99.00" routeLength="794.90" waitingTime="22.00" waitingCount="3" stopTime="0.00" timeLoss="43.72" rerouteNo="0" devices="tripinfo_B_27" vType="typeB" speedFactor="1.04" vaporized=""/>
    <tripinfo id="A_43" depart="434.00" departLane="E1_1" departPos="5.10" departSpeed="1.14" departDelay="0.00" arrival="538.00" arrivalLane="E2_0" arrivalPos="300.00" arrivalSpeed="14.20" duration="104.00" routeLength="794.90" waitingTime="29.00" waitingCount="3" stopTime="0.00" timeLoss="47.46" rerouteNo="0" devices="tripinfo_A_43" vType="typeA" speedFactor="1.02" vaporized=""/>
    <tripinfo id="A_44" depart="437.00" departLane="E1_1" departPos="5.10" departSpeed="5.39" departDelay="0.00" arrival="541.00" arrivalLane="E2_0" arrivalPos="300.00" arrivalSpeed="14.21" duration="104.00" routeLength="794.90" waitingTime="29.00" waitingCount="3" stopTime="0.00" timeLoss="47.09" rerouteNo="0" devices="tripinfo_A_44" vType="typeA" speedFactor="1.02" vaporized=""/>
    <tripinfo id="A_45" depart="446.00" departLane="E1_1" departPos="5.10" departSpeed="4.75" departDelay="0.00" arrival="543.00" arrivalLane="E2_0" arrivalPos="300.00" arrivalSpeed="13.51" duration="97.00" routeLength="794.90" waitingTime="22.00" waitingCount="2" stopTime="0.00" timeLoss="37.64" rerouteNo="0" devices="tripinfo_A_45" vType="typeA" speedFactor="0.97" vaporized=""/>
    <tripinfo id="B_28" depart="449.00" departLane="E1_0" departPos="5.10" departSpeed="3.79" departDelay="0.00" arrival="552.00" arrivalLane="E2_0" arrivalPos="300.00" arrivalSpeed="13.06" duration="103.00" routeLength="794.90" waitingTime="24.00" waitingCount="2" stopTime="0.00" timeLoss="42.04" rerouteNo="0" devices="tripinfo_B_28" vType="typeB" speedFactor="0.94" vaporized=""/>
    <tripinfo id="B_29" depart="453.00" departLane="E1_0" departPos="5.10" departSpeed="3.11" departDelay="0.00" arrival="554.00" arrivalLane="E2_0" arrivalPos="300.00" arrivalSpeed="14.66" duration="101.00" routeLength="794.90" waitingTime="24.00" waitingCount="2" stopTime="0.00" timeLoss="46.12" rerouteNo="0" devices="tripinfo_B_29" vType="typeB" speedFactor="1.06" vaporized=""/>
    <tripinfo id="A_46" depart="456.00" departLane="E1_1" departPos="5.10" departSpeed="9.00" departDelay="0.00" arrival="562.00" arrivalLane="E2_0" arrivalPos="300.00" arrivalSpeed="13.27" duration="106.00" routeLength="794.90" waitingTime="29.00" waitingCount="3" stopTime="0.00" timeLoss="45.70" rerouteNo="0" devices="tripinfo_A_46" vType="typeA" speedFactor="0.96" vaporized=""/>