<?xml version="1.0" encoding="UTF-8"?>

<!-- generated on Mon Jan  4 14:38:20 2021 by Eclipse SUMO sumo Version 1.7.0
<configuration xmlns:xsi="http://www.w3.org/2001/XMLSchema-instance" xsi:noNamespaceSchemaLocation="http://sumo.dlr.de/xsd/sumoConfiguration.xsd">

    <input>
        <net-file value="laneMerging.net.xml"/>
        <route-files value="laneMerging.rou.xml"/>
        <additional-files value="laneMerging.add.xml"/>
    </input>

    <output>
        <tripinfo-output value="tripinfo_fafg.xml"/>
    </output>

    <report>
        <no-warnings value="true"/>
        <duration-log.disable value="true"/>
        <no-step-log value="true"/>
    </report>

    <traci_server>
        <remote-port value="59623"/>
    </traci_server>

    <gui_only>
        <gui-settings-file value="laneMerging.view.xml"/>
        <start value="true"/>
    </gui_only>

</configuration>
-->

<tripinfos xmlns:xsi="http://www.w3.org/2001/XMLSchema-instance" xsi:noNamespaceSchemaLocation="http://sumo.dlr.de/xsd/tripinfo_file.xsd">
    <tripinfo id="A_1" depart="0.00" departLane="E1_1" departPos="5.10" departSpeed="13.12" departDelay="0.00" arrival="61.00" arrivalLane="E2_0" arrivalPos="400.00" arrivalSpeed="14.72" duration="61.00" routeLength="894.90" waitingTime="0.00" waitingCount="0" stopTime="0.00" timeLoss="0.01" rerouteNo="0" devices="tripinfo_A_1" vType="typeA" speedFactor="1.06" vaporized=""/>
    <tripinfo id="B_1" depart="0.00" departLane="E1_0" departPos="5.10" departSpeed="9.29" departDelay="0.00" arrival="70.00" arrivalLane="E2_0" arrivalPos="400.00" arrivalSpeed="13.03" duration="70.00" routeLength="894.90" waitingTime="0.00" waitingCount="0" stopTime="0.00" timeLoss="0.73" rerouteNo="0" devices="tripinfo_B_1" vType="typeB" speedFactor="0.94" vaporized=""/>
    <tripinfo id="B_2" depart="5.00" departLane="E1_0" departPos="5.10" departSpeed="7.39" departDelay="0.00" arrival="71.00" arrivalLane="E2_0" arrivalPos="400.00" arrivalSpeed="14.77" duration="66.00" routeLength="894.90" waitingTime="0.00" waitingCount="0" stopTime="0.00" timeLoss="6.44" rerouteNo="0" devices="tripinfo_B_2" vType="typeB" speedFactor="1.08" vaporized=""/>
    <tripinfo id="A_2" depart="2.00" departLane="E1_1" departPos="5.10" departSpeed="0.64" departDelay="0.00" arrival="78.00" arrivalLane="E2_0" arrivalPos="400.00" arrivalSpeed="14.03" duration="76.00" routeLength="894.90" waitingTime="1.00" waitingCount="1" stopTime="0.00" timeLoss="12.00" rerouteNo="0" devices="tripinfo_A_2" vType="typeA" speedFactor="1.01" vaporized=""/>
    <tripinfo id="A_3" depart="13.00" departLane="E1_1" departPos="5.10" departSpeed="8.44" departDelay="0.00" arrival="80.00" arrivalLane="E2_0" arrivalPos="400.00" arrivalSpeed="14.31" duration="67.00" routeLength="894.90" waitingTime="0.00" waitingCount="0" stopTime="0.00" timeLoss="3.75" rerouteNo="0" devices="tripinfo_A_3" vType="typeA" speedFactor="1.03" vaporized=""/>
    <tripinfo id="A_4" depart="16.00" departLane="E1_1" departPos="5.10" departSpeed="0.50" departDelay="0.00" arrival="97.00" arrivalLane="E2_0" arrivalPos="400.00" arrivalSpeed="11.54" duration="81.00" routeLength="894.90" waitingTime="0.00" waitingCount="0" stopTime="0.00" timeLoss="3.06" rerouteNo="0" devices="tripinfo_A_4" vType="typeA" speedFactor="0.83" vaporized=""/>
    <tripinfo id="A_5" depart="22.00" departLane="E1_1" departPos="5.10" departSpeed="10.80" departDelay="0.00" arrival="99.00" arrivalLane="E2_0" arrivalPos="400.00" arrivalSpeed="14.53" duration="77.00" routeLength="894.90" waitingTime="0.00" waitingCount="0" stopTime="0.00" timeLoss="14.48" rerouteNo="0" devices="tripinfo_A_5" vType="typeA" speedFactor="1.05" vaporized=""/>
    <tripinfo id="B_3" depart="28.00" departLane="E1_0" departPos="5.10" departSpeed="3.05" departDelay="0.00" arrival="103.00" arrivalLane="E2_0" arrivalPos="400.00" arrivalSpeed="12.31" duration="75.00" routeLength="894.90" waitingTime="0.00" waitingCount="0" stopTime="0.00" timeLoss="2.03" rerouteNo="0" devices="tripinfo_B_3" vType="typeB" speedFactor="0.89" vaporized=""/>
    <tripinfo id="B_4" depart="40.00" departLane="E1_0" departPos="5.10" departSpeed="7.10" departDelay="0.00" arrival="110.00" arrivalLane="E2_0" arrivalPos="400.00" arrivalSpeed="13.03" duration="70.00" routeLength="894.90" waitingTime="0.00" waitingCount="0" stopTime="0.00" timeLoss="0.67" rerouteNo="0" devices="tripinfo_B_4" vType="typeB" speedFactor="0.94" vaporized=""/>
    <tripinfo id="A_6" depart="47.00" departLane="E1_1" departPos="5.10" departSpeed="8.87" departDelay="0.00" arrival="123.00" arrivalLane="E2_0" arrivalPos="400.00" arrivalSpeed="11.90" duration="76.00" routeLength="894.90" waitingTime="0.00" waitingCount="0" stopTime="0.00" timeLoss="0.13" rerouteNo="0" devices="tripinfo_A_6" vType="typeA" speedFactor="0.86" vaporized=""/>
    <tripinfo id="A_7" depart="56.00" departLane="E1_1" departPos="5.10" departSpeed="0.09" departDelay="0.00" arrival="124.00" arrivalLane="E2_0" arrivalPos="400.00" arrivalSpeed="13.46" duration="68.00" routeLength="894.90" waitingTime="0.00" waitingCount="0" stopTime="0.00" timeLoss="8.80" rerouteNo="0" devices="tripinfo_A_7" vType="typeA" speedFactor="1.09" vaporized=""/>
    <tripinfo id="A_8" depart="59.00" departLane="E1_1" departPos="5.10" departSpeed="3.48" departDelay="0.00" arrival="126.00" arrivalLane="E2_0" arrivalPos="400.00" arrivalSpeed="14.26" duration="67.00" routeLength="894.90" waitingTime="0.00" waitingCount="0" stopTime="0.00" timeLoss="3.88" rerouteNo="0" devices="tripinfo_A_8" vType="typeA" speedFactor="1.03" vaporized=""/>
    <tripinfo id="A_9" depart="62.00" departLane="E1_1" departPos="5.10" departSpeed="6.72" departDelay="0.00" arrival="129.00" arrivalLane="E2_0" arrivalPos="400.00" arrivalSpeed="14.54" duration="67.00" routeLength="894.90" waitingTime="0.00" waitingCount="0" stopTime="0.00" timeLoss="4.89" rerouteNo="0" devices="tripinfo_A_9" vType="typeA" speedFactor="1.05" vaporized=""/>
    <tripinfo id="A_10" depart="75.00" departLane="E1_1" departPos="5.10" departSpeed="7.05" departDelay="0.00" arrival="134.00" arrivalLane="E2_0" arrivalPos="400.00" arrivalSpeed="15.60" duration="59.00" routeLength="894.90" waitingTime="0.00" waitingCount="0" stopTime="0.00" timeLoss="1.30" rerouteNo="0" devices="tripinfo_A_10" vType="typeA" speedFactor="1.12" vaporized=""/>
    <tripinfo id="A_11" depart="76.00" departLane="E1_1" departPos="5.10" departSpeed="6.81" departDelay="0.00" arrival="143.00" arrivalLane="E2_0" arrivalPos="400.00" arrivalSpeed="13.77" duration="67.00" routeLength="894.90" waitingTime="0.00" waitingCount="0" stopTime="0.00" timeLoss="1.44" rerouteNo="0" devices="tripinfo_A_11" vType="typeA" speedFactor="0.99" vaporized=""/>
    <tripinfo id="B_5" depart="78.00" departLane="E1_0" departPos="5.10" departSpeed="3.41" departDelay="0.00" arrival="150.00" arrivalLane="E2_0" arrivalPos="400.00" arrivalSpeed="12.87" duration="72.00" routeLength="894.90" waitingTime="0.00" waitingCount="0" stopTime="0.00" timeLoss="2.34" rerouteNo="0" devices="tripinfo_B_5" vType="typeB" speedFactor="0.93" vaporized=""/>
    <tripinfo id="A_12" depart="86.00" departLane="E1_1" departPos="5.10" departSpeed="8.89" departDelay="0.00" arrival="156.00" arrivalLane="E2_0" arrivalPos="400.00" arrivalSpeed="13.00" duration="70.00" routeLength="894.90" waitingTime="0.00" waitingCount="0" stopTime="0.00" timeLoss="0.29" rerouteNo="0" devices="tripinfo_A_12" vType="typeA" speedFactor="0.94" vaporized=""/>
    <tripinfo id="A_13" depart="89.00" departLane="E1_1" departPos="5.10" departSpeed="8.89" departDelay="0.00" arrival="157.00" arrivalLane="E2_0" arrivalPos="400.00" arrivalSpeed="14.03" duration="68.00" routeLength="894.90" waitingTime="0.00" waitingCount="0" stopTime="0.00" timeLoss="3.94" rerouteNo="0" devices="tripinfo_A_13" vType="typeA" speedFactor="1.01" vaporized=""/>
    <tripinfo id="A_14" depart="90.00" departLane="E1_1" departPos="5.10" departSpeed="8.97" departDelay="0.00" arrival="160.00" arrivalLane="E2_0" arrivalPos="400.00" arrivalSpeed="13.54" duration="70.00" routeLength="894.90" waitingTime="0.00" waitingCount="0" stopTime="0.00" timeLoss="3.04" rerouteNo="0" devices="tripinfo_A_14" vType="typeA" speedFactor="0.98" vaporized=""/>
    <tripinfo id="B_6" depart="80.00" departLane="E1_0" departPos="5.10" departSpeed="5.68" departDelay="1.00" arrival="170.00" arrivalLane="E2_0" arrivalPos="400.00" arrivalSpeed="12.20" duration="90.00" routeLength="894.90" waitingTime="8.00" waitingCount="1" stopTime="0.00" timeLoss="16.10" rerouteNo="0" devices="tripinfo_B_6" vType="typeB" speedFactor="0.88" vaporized=""/>
    <tripinfo id="B_7" depart="82.00" departLane="E1_0" departPos="5.10" departSpeed="4.21" departDelay="0.00" arrival="171.00" arrivalLane="E2_0" arrivalPos="400.00" arrivalSpeed="13.08" duration="89.00" routeLength="894.90" waitingTime="8.00" waitingCount="1" stopTime="0.00" timeLoss="20.54" rerouteNo="0" devices="tripinfo_B_7" vType="typeB" speedFactor="0.94" vaporized=""/>
    <tripinfo id="B_8" depart="87.00" departLane="E1_0" departPos="5.10" departSpeed="0.74" departDelay="0.00" arrival="173.00" arrivalLane="E2_0" arrivalPos="400.00" arrivalSpeed="15.20" duration="86.00" routeLength="894.90" waitingTime="8.00" waitingCount="1" stopTime="0.00" timeLoss="29.84" rerouteNo="0" devices="tripinfo_B_8" vType="typeB" speedFactor="1.16" vaporized=""/>
    <tripinfo id="B_9" depart="90.00" departLane="E1_0" departPos="5.10" departSpeed="4.74" departDelay="2.00" arrival="174.00" arrivalLane="E2_0" arrivalPos="400.00" arrivalSpeed="14.14" duration="84.00" routeLength="894.90" waitingTime="7.00" waitingCount="1" stopTime="0.00" timeLoss="20.72" rerouteNo="0" devices="tripinfo_B_9" vType="typeB" speedFactor="1.02" vaporized=""/>
    <tripinfo id="B_10" depart="101.00" departLane="E1_0" departPos="5.10" departSpeed="10.97" departDelay="0.00" arrival="176.00" arrivalLane="E2_0" arrivalPos="400.00" arrivalSpeed="12.36" duration="75.00" routeLength="894.90" waitingTime="0.00" waitingCount="0" stopTime="0.00" timeLoss="2.44" rerouteNo="0" devices="tripinfo_B_10" vType="typeB" speedFactor="0.89" vaporized=""/>
    <tripinfo id="B_11" depart="111.00" departLane="E1_0" departPos="5.10" departSpeed="4.55" departDelay="0.00" arrival="191.00" arrivalLane="E2_0" arrivalPos="400.00" arrivalSpeed="11.47" duration="80.00" routeLength="894.90" waitingTime="0.00" waitingCount="0" stopTime="0.00" timeLoss="1.11" rerouteNo="0" devices="tripinfo_B_11" vType="typeB" speedFactor="0.83" vaporized=""/>
    <tripinfo id="B_12" depart="113.00" departLane="E1_0" departPos="5.10" departSpeed="6.60" departDelay="0.00" arrival="192.00" arrivalLane="E2_0" arrivalPos="400.00" arrivalSpeed="12.12" duration="79.00" routeLength="894.90" waitingTime="0.00" waitingCount="0" stopTime="0.00" timeLoss="4.97" rerouteNo="0" devices="tripinfo_B_12" vType="typeB" speedFactor="0.87" vaporized=""/>
    <tripinfo id="B_13" depart="129.00" departLane="E1_0" departPos="5.10" departSpeed="3.02" departDelay="0.00" arrival="202.00" arrivalLane="E2_0" arrivalPos="400.00" arrivalSpeed="12.74" duration="73.00" routeLength="894.90" waitingTime="0.00" waitingCount="0" stopTime="0.00" timeLoss="2.11" rerouteNo="0" devices="tripinfo_B_13" vType="typeB" speedFactor="0.92" vaporized=""/>
    <tripinfo id="A_15" depart="130.00" departLane="E1_1" departPos="5.10" departSpeed="0.43" departDelay="0.00" arrival="206.00" arrivalLane="E2_0" arrivalPos="400.00" arrivalSpeed="13.18" duration="76.00" routeLength="894.90" waitingTime="0.00" waitingCount="0" stopTime="0.00" timeLoss="7.52" rerouteNo="0" devices="tripinfo_A_15" vType="typeA" speedFactor="0.95" vaporized=""/>
    <tripinfo id="A_16" depart="133.00" departLane="E1_1" departPos="5.10" departSpeed="4.21" departDelay="1.00" arrival="207.00" arrivalLane="E2_0" arrivalPos="400.00" arrivalSpeed="14.80" duration="74.00" routeLength="894.90" waitingTime="0.00" waitingCount="0" stopTime="0.00" timeLoss="17.01" rerouteNo="0" devices="tripinfo_A_16" vType="typeA" speedFactor="1.13" vaporized=""/>
    <tripinfo id="A_17" depart="135.00" departLane="E1_1" departPos="5.10" departSpeed="4.62" departDelay="1.00" arrival="211.00" arrivalLane="E2_0" arrivalPos="400.00" arrivalSpeed="12.94" duration="76.00" routeLength="894.90" waitingTime="0.00" waitingCount="0" stopTime="0.00" timeLoss="6.63" rerouteNo="0" devices="tripinfo_A_17" vType="typeA" speedFactor="0.93" vaporized=""/>
    <tripinfo id="A_18" depart="146.00" departLane="E1_1" departPos="5.10" departSpeed="0.49" departDelay="0.00" arrival="213.00" arrivalLane="E2_0" arrivalPos="400.00" arrivalSpeed="15.97" duration="67.00" routeLength="894.90" waitingTime="0.00" waitingCount="0" stopTime="0.00" timeLoss="11.58" rerouteNo="0" devices="tripinfo_A_18" vType="typeA" speedFactor="1.18" vaporized=""/>
    <tripinfo id="A_19" depart="149.00" departLane="E1_1" departPos="5.10" departSpeed="4.31" departDelay="1.00" arrival="214.00" arrivalLane="E2_0" arrivalPos="400.00" arrivalSpeed="16.04" duration="65.00" routeLength="894.90" waitingTime="0.00" waitingCount="0" stopTime="0.00" timeLoss="8.93" rerouteNo="0" devices="tripinfo_A_19" vType="typeA" speedFactor="1.15" vaporized=""/>
    <tripinfo id="B_14" depart="149.00" departLane="E1_0" departPos="5.10" departSpeed="1.81" departDelay="0.00" arrival="220.00" arrivalLane="E2_0" arrivalPos="400.00" arrivalSpeed="13.96" duration="71.00" routeLength="894.90" waitingTime="0.00" waitingCount="0" stopTime="0.00" timeLoss="6.53" rerouteNo="0" devices="tripinfo_B_14" vType="typeB" speedFactor="1.01" vaporized=""/>
    <tripinfo id="B_15" depart="151.00" departLane="E1_0" departPos="5.10" departSpeed="3.11" departDelay="1.00" arrival="222.00" arrivalLane="E2_0" arrivalPos="400.00" arrivalSpeed="16.28" duration="71.00" routeLength="894.90" waitingTime="0.00" waitingCount="0" stopTime="0.00" timeLoss="15.07" rerouteNo="0" devices="tripinfo_B_15" vType="typeB" speedFactor="1.17" vaporized=""/>
    <tripinfo id="B_16" depart="153.00" departLane="E1_0" departPos="5.10" departSpeed="2.72" departDelay="0.00" arrival="224.00" arrivalLane="E2_0" arrivalPos="400.00" arrivalSpeed="13.82" duration="71.00" routeLength="894.90" waitingTime="0.00" waitingCount="0" stopTime="0.00" timeLoss="5.74" rerouteNo="0" devices="tripinfo_B_16" vType="typeB" speedFactor="0.99" vaporized=""/>
    <tripinfo id="A_20" depart="160.00" departLane="E1_1" departPos="5.10" departSpeed="3.74" departDelay="0.00" arrival="228.00" arrivalLane="E2_0" arrivalPos="400.00" arrivalSpeed="14.16" duration="68.00" routeLength="894.90" waitingTime="0.00" waitingCount="0" stopTime="0.00" timeLoss="4.82" rerouteNo="0" devices="tripinfo_A_20" vType="typeA" speedFactor="1.02" vaporized=""/>
    <tripinfo id="B_17" depart="167.00" departLane="E1_0" departPos="5.10" departSpeed="9.37" departDelay="0.00" arrival="233.00" arrivalLane="E2_0" arrivalPos="400.00" arrivalSpeed="16.39" duration="66.00" routeLength="894.90" waitingTime="1.00" waitingCount="1" stopTime="0.00" timeLoss="10.82" rerouteNo="0" devices="tripinfo_B_17" vType="typeB" speedFactor="1.18" vaporized=""/>
    <tripinfo id="A_21" depart="162.00" departLane="E1_1" departPos="5.10" departSpeed="2.27" departDelay="1.00" arrival="242.00" arrivalLane="E2_0" arrivalPos="400.00" arrivalSpeed="13.52" duration="80.00" routeLength="894.90" waitingTime="3.00" waitingCount="1" stopTime="0.00" timeLoss="13.47" rerouteNo="0" devices="tripinfo_A_21" vType="typeA" speedFactor="0.97" vaporized=""/>
    <tripinfo id="B_18" depart="172.00" departLane="E1_0" departPos="5.10" departSpeed="10.15" departDelay="0.00" arrival="247.00" arrivalLane="E2_0" arrivalPos="400.00" arrivalSpeed="12.51" duration="75.00" routeLength="894.90" waitingTime="0.00" waitingCount="0" stopTime="0.00" timeLoss="3.20" rerouteNo="0" devices="tripinfo_B_18" vType="typeB" speedFactor="0.90" vaporized=""/>
    <tripinfo id="A_22" depart="172.00" departLane="E1_1" departPos="5.10" departSpeed="3.70" departDelay="0.00" arrival="249.00" arrivalLane="E2_0" arrivalPos="400.00" arrivalSpeed="15.31" duration="77.00" routeLength="894.90" waitingTime="5.00" waitingCount="1" stopTime="0.00" timeLoss="18.46" rerouteNo="0" devices="tripinfo_A_22" vType="typeA" speedFactor="1.10" vaporized=""/>
    <tripinfo id="B_19" depart="182.00" departLane="E1_0" departPos="5.10" departSpeed="1.27" departDelay="0.00" arrival="255.00" arrivalLane="E2_0" arrivalPos="400.00" arrivalSpeed="14.31" duration="73.00" routeLength="894.90" waitingTime="0.00" waitingCount="0" stopTime="0.00" timeLoss="9.50" rerouteNo="0" devices="tripinfo_B_19" vType="typeB" speedFactor="1.03" vaporized=""/>
    <tripinfo id="A_23" depart="194.00" departLane="E1_1" departPos="5.10" departSpeed="10.85" departDelay="0.00" arrival="257.00" arrivalLane="E2_0" arrivalPos="400.00" arrivalSpeed="15.17" duration="63.00" routeLength="894.90" waitingTime="0.00" waitingCount="0" stopTime="0.00" timeLoss="3.33" rerouteNo="0" devices="tripinfo_A_23" vType="typeA" speedFactor="1.09" vaporized=""/>
    <tripinfo id="B_20" depart="191.00" departLane="E1_0" departPos="5.10" departSpeed="8.88" departDelay="0.00" arrival="268.00" arrivalLane="E2_0" arrivalPos="400.00" arrivalSpeed="13.29" duration="77.00" routeLength="894.90" waitingTime="1.00" waitingCount="1" stopTime="0.00" timeLoss="8.79" rerouteNo="0" devices="tripinfo_B_20" vType="typeB" speedFactor="0.96" vaporized=""/>
    <tripinfo id="B_21" depart="195.00" departLane="E1_0" departPos="5.10" departSpeed="10.02" departDelay="0.00" arrival="269.00" arrivalLane="E2_0" arrivalPos="400.00" arrivalSpeed="14.49" duration="74.00" routeLength="894.90" waitingTime="1.00" waitingCount="1" stopTime="0.00" timeLoss="11.86" rerouteNo="0" devices="tripinfo_B_21" vType="typeB" speedFactor="1.04" vaporized=""/>
    <tripinfo id="B_22" depart="209.00" departLane="E1_0" departPos="5.10" departSpeed="14.13" departDelay="0.00" arrival="271.00" arrivalLane="E2_0" arrivalPos="400.00" arrivalSpeed="15.11" duration="62.00" routeLength="894.90" waitingTime="0.00" waitingCount="0" stopTime="0.00" timeLoss="1.92" rerouteNo="0" devices="tripinfo_B_22" vType="typeB" speedFactor="1.09" vaporized=""/>
    <tripinfo id="A_24" depart="195.00" departLane="E1_1" departPos="5.10" departSpeed="8.59" departDelay="0.00" arrival="278.00" arrivalLane="E2_0" arrivalPos="400.00" arrivalSpeed="14.41" duration="83.00" routeLength="894.90" waitingTime="11.00" waitingCount="1" stopTime="0.00" timeLoss="20.05" rerouteNo="0" devices="tripinfo_A_24" vType="typeA" speedFactor="1.04" vaporized=""/>
    <tripinfo id="A_25" depart="213.00" departLane="E1_1" departPos="5.10" departSpeed="13.30" departDelay="0.00" arrival="280.00" arrivalLane="E2_0" arrivalPos="400.00" arrivalSpeed="13.85" duration="67.00" routeLength="894.90" waitingTime="0.00" waitingCount="0" stopTime="0.00" timeLoss="2.29" rerouteNo="0" devices="tripinfo_A_25" vType="typeA" speedFactor="1.00" vaporized=""/>
    <tripinfo id="B_23" depart="216.00" departLane="E1_0" departPos="5.10" departSpeed="3.85" departDelay="0.00" arrival="290.00" arrivalLane="E2_0" arrivalPos="400.00" arrivalSpeed="12.51" duration="74.00" routeLength="894.90" waitingTime="0.00" waitingCount="0" stopTime="0.00" timeLoss="1.66" rerouteNo="0" devices="tripinfo_B_23" vType="typeB" speedFactor="0.90" vaporized=""/>
    <tripinfo id="B_24" depart="229.00" departLane="E1_0" departPos="5.10" departSpeed="6.00" departDelay="0.00" arrival="304.00" arrivalLane="E2_0" arrivalPos="400.00" arrivalSpeed="12.18" duration="75.00" routeLength="894.90" waitingTime="0.00" waitingCount="0" stopTime="0.00" timeLoss="0.80" rerouteNo="0" devices="tripinfo_B_24" vType="typeB" speedFactor="0.88" vaporized=""/>
    <tripinfo id="A_26" depart="230.00" departLane="E1_1" departPos="5.10" departSpeed="6.85" departDelay="0.00" arrival="310.00" arrivalLane="E2_0" arrivalPos="400.00" arrivalSpeed="11.81" duration="80.00" routeLength="894.90" waitingTime="0.00" waitingCount="0" stopTime="0.00" timeLoss="3.92" rerouteNo="0" devices="tripinfo_A_26" vType="typeA" speedFactor="0.85" vaporized=""/>
    <tripinfo id="A_27" depart="242.00" departLane="E1_1" departPos="5.10" departSpeed="2.59" departDelay="0.00" arrival="312.00" arrivalLane="E2_0" arrivalPos="400.00" arrivalSpeed="14.12" duration="70.00" routeLength="894.90" waitingTime="0.00" waitingCount="0" stopTime="0.00" timeLoss="5.81" rerouteNo="0" devices="tripinfo_A_27" vType="typeA" speedFactor="1.02" vaporized=""/>
    <tripinfo id="A_28" depart="246.00" departLane="E1_1" departPos="5.10" departSpeed="9.77" departDelay="0.00" arrival="313.00" arrivalLane="E2_0" arrivalPos="400.00" arrivalSpeed="14.91" duration="67.00" routeLength="894.90" waitingTime="0.00" waitingCount="0" stopTime="0.00" timeLoss="7.90" rerouteNo="0" devices="tripinfo_A_28" vType="typeA" speedFactor="1.10" vaporized=""/>
    <tripinfo id="A_29" depart="248.00" departLane="E1_1" departPos="5.10" departSpeed="2.12" departDelay="0.00" arrival="317.00" arrivalLane="E2_0" arrivalPos="400.00" arrivalSpeed="13.93" duration="69.00" routeLength="894.90" waitingTime="0.00" waitingCount="0" stopTime="0.00" timeLoss="4.10" rerouteNo="0" devices="tripinfo_A_29" vType="typeA" speedFactor="1.00" vaporized=""/>
    <tripinfo id="B_25" depart="237.00" departLane="E1_0" departPos="5.10" departSpeed="2.00" departDelay="0.00" arrival="328.00" arrivalLane="E2_0" arrivalPos="400.00" arrivalSpeed="11.87" duration="91.00" routeLength="894.90" waitingTime="6.00" waitingCount="1" stopTime="0.00" timeLoss="14.87" rerouteNo="0" devices="tripinfo_B_25" vType="typeB" speedFactor="0.85" vaporized=""/>
    <tripinfo id="B_26" depart="241.00" departLane="E1_0" departPos="5.10" departSpeed="9.50" departDelay="0.00" arrival="329.00" arrivalLane="E2_0" arrivalPos="400.00" arrivalSpeed="13.37" duration="88.00" routeLength="894.90" waitingTime="6.00" waitingCount="1" stopTime="0.00" timeLoss="32.69" rerouteNo="0" devices="tripinfo_B_26" vType="typeB" speedFactor="1.17" vaporized=""/>
    <tripinfo id="A_30" depart="250.00" departLane="E1_1" departPos="5.10" departSpeed="0.39" departDelay="0.00" arrival="332.00" arrivalLane="E2_0" arrivalPos="400.00" arrivalSpeed="13.83" duration="82.00" routeLength="894.90" waitingTime="6.00" waitingCount="1" stopTime="0.00" timeLoss="16.42" rerouteNo="0" devices="tripinfo_A_30" vType="typeA" speedFactor="1.00" vaporized=""/>
    <tripinfo id="A_31" depart="253.00" departLane="E1_1" departPos="5.10" departSpeed="3.48" departDelay="0.00" arrival="336.00" arrivalLane="E2_0" arrivalPos="400.00" arrivalSpeed="12.49" duration="83.00" routeLength="894.90" waitingTime="2.00" waitingCount="1" stopTime="0.00" timeLoss="10.72" rerouteNo="0" devices="tripinfo_A_31" vType="typeA" speedFactor="0.90" vaporized=""/>
    <tripinfo id="A_32" depart="259.00" departLane="E1_1" departPos="5.10" departSpeed="8.68" departDelay="0.00" arrival="337.00" arrivalLane="E2_0" arrivalPos="400.00" arrivalSpeed="13.99" duration="78.00" routeLength="894.90" waitingTime="2.00" waitingCount="1" stopTime="0.00" timeLoss="21.51" rerouteNo="0" devices="tripinfo_A_32" vType="typeA" speedFactor="1.14" vaporized=""/>
    <tripinfo id="B_27" depart="261.00" departLane="E1_0" departPos="5.10" departSpeed="13.20" departDelay="0.00" arrival="341.00" arrivalLane="E2_0" arrivalPos="400.00" arrivalSpeed="14.22" duration="80.00" routeLength="894.90" waitingTime="8.00" waitingCount="1" stopTime="0.00" timeLoss="16.51" rerouteNo="0" devices="tripinfo_B_27" vType="typeB" speedFactor="1.02" vaporized=""/>
    <tripinfo id="A_33" depart="268.00" departLane="E1_1" departPos="5.10" departSpeed="0.90" departDelay="0.00" arrival="347.00" arrivalLane="E2_0" arrivalPos="400.00" arrivalSpeed="13.47" duration="79.00" routeLength="894.90" waitingTime="2.00" waitingCount="1" stopTime="0.00" timeLoss="12.32" rerouteNo="0" devices="tripinfo_A_33" vType="typeA" speedFactor="0.97" vaporized=""/>
    <tripinfo id="A_34" depart="279.00" departLane="E1_1" departPos="5.10" departSpeed="15.43" departDelay="0.00" arrival="349.00" arrivalLane="E2_0" arrivalPos="400.00" arrivalSpeed="15.55" duration="70.00" routeLength="894.90" waitingTime="0.00" waitingCount="0" stopTime="0.00" timeLoss="11.63" rerouteNo="0" devices="tripinfo_A_34" vType="typeA" speedFactor="1.12" vaporized=""/>
    <tripinfo id="B_28" depart="273.00" departLane="E1_0" departPos="5.10" departSpeed="2.69" departDelay="0.00" arrival="352.00" arrivalLane="E2_0" arrivalPos="400.00" arrivalSpeed="15.04" duration="79.00" routeLength="894.90" waitingTime="7.00" waitingCount="1" stopTime="0.00" timeLoss="18.66" rerouteNo="0" devices="tripinfo_B_28" vType="typeB" speedFactor="1.08" vaporized=""/>
    <tripinfo id="B_29" depart="288.00" departLane="E1_0" departPos="5.10" departSpeed="4.43" departDelay="0.00" arrival="355.00" arrivalLane="E2_0" arrivalPos="400.00" arrivalSpeed="14.11" duration="67.00" routeLength="894.90" waitingTime="0.00" waitingCount="0" stopTime="0.00" timeLoss="3.25" rerouteNo="0" devices="tripinfo_B_29" vType="typeB" speedFactor="1.02" vaporized=""/>
    <tripinfo id="B_30" depart="290.00" departLane="E1_0" departPos="5.10" departSpeed="4.65" departDelay="0.00" arrival="358.00" arrivalLane="E2_0" arrivalPos="400.00" arrivalSpeed="13.71" duration="68.00" routeLength="894.90" waitingTime="0.00" waitingCount="0" stopTime="0.00" timeLoss="2.52" rerouteNo="0" devices="tripinfo_B_30" vType="typeB" speedFactor="0.99" vaporized=""/>
    <tripinfo id="B_31" depart="300.00" departLane="E1_0" departPos="5.10" departSpeed="1.12" departDelay="0.00" arrival="372.00" arrivalLane="E2_0" arrivalPos="400.00" arrivalSpeed="13.02" duration="72.00" routeLength="894.90" waitingTime="0.00" waitingCount="0" stopTime="0.00" timeLoss="3.17" rerouteNo="0" devices="tripinfo_B_31" vType="typeB" speedFactor="0.94" vaporized=""/>
    <tripinfo id="A_35" depart="310.00" departLane="E1_1" departPos="5.10" departSpeed="6.95" departDelay="0.00" arrival="384.00" arrivalLane="E2_0" arrivalPos="400.00" arrivalSpeed="12.26" duration="74.00" routeLength="894.90" waitingTime="0.00" waitingCount="0" stopTime="0.00" timeLoss="0.56" rerouteNo="0" devices="tripinfo_A_35" vType="typeA" speedFactor="0.88" vaporized=""/>
    <tripinfo id="B_32" depart="318.00" departLane="E1_0" departPos="5.10" departSpeed="2.61" departDelay="0.00" arrival="392.00" arrivalLane="E2_0" arrivalPos="400.00" arrivalSpeed="12.60" duration="74.00" routeLength="894.90" waitingTime="0.00" waitingCount="0" stopTime="0.00" timeLoss="2.26" rerouteNo="0" devices="tripinfo_B_32" vType="typeB" speedFactor="0.91" vaporized=""/>
    <tripinfo id="A_36" depart="322.00" departLane="E1_1" departPos="5.10" departSpeed="0.68" departDelay="0.00" arrival="394.00" arrivalLane="E2_0" arrivalPos="400.00" arrivalSpeed="14.44" duration="72.00" routeLength="894.90" waitingTime="0.00" waitingCount="0" stopTime="0.00" timeLoss="9.77" rerouteNo="0" devices="tripinfo_A_36" vType="typeA" speedFactor="1.04" vaporized=""/>
    <tripinfo id="B_33" depart="321.00" departLane="E1_0" departPos="5.10" departSpeed="2.30" departDelay="0.00" arrival="404.00" arrivalLane="E2_0" arrivalPos="400.00" arrivalSpeed="12.70" duration="83.00" routeLength="894.90" waitingTime="3.00" waitingCount="1" stopTime="0.00" timeLoss="11.87" rerouteNo="0" devices="tripinfo_B_33" vType="typeB" speedFactor="0.91" vaporized=""/>
    <tripinfo id="B_34" depart="324.00" departLane="E1_0" departPos="5.10" departSpeed="5.00" departDelay="0.00" arrival="405.00" arrivalLane="E2_0" arrivalPos="400.00" arrivalSpeed="14.20" duration="81.00" routeLength="894.90" waitingTime="3.00" waitingCount="1" stopTime="0.00" timeLoss="17.83" rerouteNo="0" devices="tripinfo_B_34" vType="typeB" speedFactor="1.02" vaporized=""/>
    <tripinfo id="A_37" depart="325.00" departLane="E1_1" departPos="5.10" departSpeed="4.12" departDelay="2.00" arrival="408.00" arrivalLane="E2_0" arrivalPos="400.00" arrivalSpeed="14.20" duration="83.00" routeLength="894.90" waitingTime="8.00" waitingCount="1" stopTime="0.00" timeLoss="19.46" rerouteNo="0" devices="tripinfo_A_37" vType="typeA" speedFactor="1.02" vaporized=""/>
    <tripinfo id="A_38" depart="329.00" departLane="E1_1" departPos="5.10" departSpeed="8.86" departDelay="0.00" arrival="412.00" arrivalLane="E2_0" arrivalPos="400.00" arrivalSpeed="13.06" duration="83.00" routeLength="894.90" waitingTime="6.00" waitingCount="1" stopTime="0.00" timeLoss="13.62" rerouteNo="0" devices="tripinfo_A_38" vType="typeA" speedFactor="0.94" vaporized=""/>
    <tripinfo id="B_35" depart="327.00" departLane="E1_0" departPos="5.10" departSpeed="2.87" departDelay="0.00" arrival="417.00" arrivalLane="E2_0" arrivalPos="400.00" arrivalSpeed="13.51" duration="90.00" routeLength="894.90" waitingTime="10.00" waitingCount="2" stopTime="0.00" timeLoss="23.46" rerouteNo="0" devices="tripinfo_B_35" vType="typeB" speedFactor="0.97" vaporized=""/>
    <tripinfo id="A_39" depart="332.00" departLane="E1_1" departPos="5.10" departSpeed="6.21" departDelay="0.00" arrival="420.00" arrivalLane="E2_0" arrivalPos="400.00" arrivalSpeed="14.66" duration="88.00" routeLength="894.90" waitingTime="12.00" waitingCount="2" stopTime="0.00" timeLoss="26.71" rerouteNo="0" devices="tripinfo_A_39" vType="typeA" speedFactor="1.06" vaporized=""/>
    <tripinfo id="B_36" depart="346.00" departLane="E1_0" departPos="5.10" departSpeed="8.16" departDelay="0.00" arrival="428.00" arrivalLane="E2_0" arrivalPos="400.00" arrivalSpeed="13.27" duration="82.00" routeLength="894.90" waitingTime="5.00" waitingCount="1" stopTime="0.00" timeLoss="13.70" rerouteNo="0" devices="tripinfo_B_36" vType="typeB" speedFactor="0.96" vaporized=""/>