<?xml version="1.0" encoding="UTF-8"?>

<!-- generated on Fri Jan  8 22:02:35 2021 by Eclipse SUMO sumo Version 1.7.0
<configuration xmlns:xsi="http://www.w3.org/2001/XMLSchema-instance" xsi:noNamespaceSchemaLocation="http://sumo.dlr.de/xsd/sumoConfiguration.xsd">

    <input>
        <net-file value="laneMerging.net.xml"/>
        <route-files value="laneMerging.rou.xml"/>
        <additional-files value="laneMerging.add.xml"/>
    </input>

    <output>
        <tripinfo-output value="tripinfo_fcfg.xml"/>
    </output>

    <report>
        <no-warnings value="true"/>
        <duration-log.disable value="true"/>
        <no-step-log value="true"/>
    </report>

    <traci_server>
        <remote-port value="65076"/>
    </traci_server>

    <gui_only>
        <gui-settings-file value="laneMerging.view.xml"/>
        <start value="true"/>
    </gui_only>

</configuration>
-->

<tripinfos xmlns:xsi="http://www.w3.org/2001/XMLSchema-instance" xsi:noNamespaceSchemaLocation="http://sumo.dlr.de/xsd/tripinfo_file.xsd">
    <tripinfo id="A_1" depart="0.00" departLane="E1_1" departPos="5.10" departSpeed="13.12" departDelay="0.00" arrival="54.00" arrivalLane="E2_0" arrivalPos="300.00" arrivalSpeed="14.72" duration="54.00" routeLength="794.90" waitingTime="0.00" waitingCount="0" stopTime="0.00" timeLoss="0.01" rerouteNo="0" devices="tripinfo_A_1" vType="typeA" speedFactor="1.06" vaporized=""/>
    <tripinfo id="B_1" depart="3.00" departLane="E1_0" departPos="5.10" departSpeed="9.29" departDelay="0.00" arrival="65.00" arrivalLane="E2_0" arrivalPos="300.00" arrivalSpeed="13.03" duration="62.00" routeLength="794.90" waitingTime="0.00" waitingCount="0" stopTime="0.00" timeLoss="0.23" rerouteNo="0" devices="tripinfo_B_1" vType="typeB" speedFactor="0.94" vaporized=""/>
    <tripinfo id="B_2" depart="9.00" departLane="E1_0" departPos="5.10" departSpeed="7.39" departDelay="0.00" arrival="66.00" arrivalLane="E2_0" arrivalPos="300.00" arrivalSpeed="14.82" duration="57.00" routeLength="794.90" waitingTime="0.00" waitingCount="0" stopTime="0.00" timeLoss="3.96" rerouteNo="0" devices="tripinfo_B_2" vType="typeB" speedFactor="1.08" vaporized=""/>
    <tripinfo id="A_2" depart="6.00" departLane="E1_1" departPos="5.10" departSpeed="0.64" departDelay="0.00" arrival="71.00" arrivalLane="E2_0" arrivalPos="300.00" arrivalSpeed="14.03" duration="65.00" routeLength="794.90" waitingTime="0.00" waitingCount="0" stopTime="0.00" timeLoss="8.00" rerouteNo="0" devices="tripinfo_A_2" vType="typeA" speedFactor="1.01" vaporized=""/>
    <tripinfo id="B_3" depart="12.00" departLane="E1_0" departPos="5.10" departSpeed="8.44" departDelay="0.00" arrival="74.00" arrivalLane="E2_0" arrivalPos="300.00" arrivalSpeed="14.31" duration="62.00" routeLength="794.90" waitingTime="0.00" waitingCount="0" stopTime="0.00" timeLoss="6.42" rerouteNo="0" devices="tripinfo_B_3" vType="typeB" speedFactor="1.03" vaporized=""/>
    <tripinfo id="B_4" depart="15.00" departLane="E1_0" departPos="5.10" departSpeed="10.80" departDelay="0.00" arrival="77.00" arrivalLane="E2_0" arrivalPos="300.00" arrivalSpeed="14.53" duration="62.00" routeLength="794.90" waitingTime="0.00" waitingCount="0" stopTime="0.00" timeLoss="6.58" rerouteNo="0" devices="tripinfo_B_4" vType="typeB" speedFactor="1.05" vaporized=""/>
    <tripinfo id="B_5" depart="16.00" departLane="E1_0" departPos="5.10" departSpeed="3.05" departDelay="0.00" arrival="83.00" arrivalLane="E2_0" arrivalPos="300.00" arrivalSpeed="12.31" duration="67.00" routeLength="794.90" waitingTime="0.00" waitingCount="0" stopTime="0.00" timeLoss="1.96" rerouteNo="0" devices="tripinfo_B_5" vType="typeB" speedFactor="0.89" vaporized=""/>
    <tripinfo id="A_3" depart="13.00" departLane="E1_1" departPos="5.10" departSpeed="0.50" departDelay="0.00" arrival="90.00" arrivalLane="E2_0" arrivalPos="300.00" arrivalSpeed="11.54" duration="77.00" routeLength="794.90" waitingTime="0.00" waitingCount="0" stopTime="0.00" timeLoss="7.24" rerouteNo="0" devices="tripinfo_A_3" vType="typeA" speedFactor="0.83" vaporized=""/>
    <tripinfo id="B_6" depart="20.00" departLane="E1_0" departPos="5.10" departSpeed="7.10" departDelay="0.00" arrival="92.00" arrivalLane="E2_0" arrivalPos="300.00" arrivalSpeed="13.03" duration="72.00" routeLength="794.90" waitingTime="2.00" waitingCount="1" stopTime="0.00" timeLoss="10.04" rerouteNo="0" devices="tripinfo_B_6" vType="typeB" speedFactor="0.94" vaporized=""/>
    <tripinfo id="A_4" depart="23.00" departLane="E1_1" departPos="5.10" departSpeed="8.87" departDelay="0.00" arrival="95.00" arrivalLane="E2_0" arrivalPos="300.00" arrivalSpeed="11.90" duration="72.00" routeLength="794.90" waitingTime="0.00" waitingCount="0" stopTime="0.00" timeLoss="4.90" rerouteNo="0" devices="tripinfo_A_4" vType="typeA" speedFactor="0.86" vaporized=""/>
    <tripinfo id="A_5" depart="25.00" departLane="E1_1" departPos="5.10" departSpeed="0.09" departDelay="0.00" arrival="97.00" arrivalLane="E2_0" arrivalPos="300.00" arrivalSpeed="14.90" duration="72.00" routeLength="794.90" waitingTime="0.00" waitingCount="0" stopTime="0.00" timeLoss="18.70" rerouteNo="0" devices="tripinfo_A_5" vType="typeA" speedFactor="1.09" vaporized=""/>
    <tripinfo id="A_6" depart="28.00" departLane="E1_1" departPos="5.10" departSpeed="3.48" departDelay="1.00" arrival="98.00" arrivalLane="E2_0" arrivalPos="300.00" arrivalSpeed="14.26" duration="70.00" routeLength="794.90" waitingTime="0.00" waitingCount="0" stopTime="0.00" timeLoss="13.95" rerouteNo="0" devices="tripinfo_A_6" vType="typeA" speedFactor="1.03" vaporized=""/>
    <tripinfo id="B_7" depart="34.00" departLane="E1_0" departPos="5.10" departSpeed="8.83" departDelay="0.00" arrival="100.00" arrivalLane="E2_0" arrivalPos="300.00" arrivalSpeed="15.60" duration="66.00" routeLength="794.90" waitingTime="4.00" waitingCount="1" stopTime="0.00" timeLoss="14.65" rerouteNo="0" devices="tripinfo_B_7" vType="typeB" speedFactor="1.12" vaporized=""/>
    <tripinfo id="A_7" depart="32.00" departLane="E1_1" departPos="5.10" departSpeed="6.58" departDelay="0.00" arrival="104.00" arrivalLane="E2_0" arrivalPos="300.00" arrivalSpeed="14.54" duration="72.00" routeLength="794.90" waitingTime="2.00" waitingCount="1" stopTime="0.00" timeLoss="16.40" rerouteNo="0" devices="tripinfo_A_7" vType="typeA" speedFactor="1.05" vaporized=""/>
    <tripinfo id="A_8" depart="35.00" departLane="E1_1" departPos="5.10" departSpeed="3.64" departDelay="0.00" arrival="106.00" arrivalLane="E2_0" arrivalPos="300.00" arrivalSpeed="13.77" duration="71.00" routeLength="794.90" waitingTime="1.00" waitingCount="1" stopTime="0.00" timeLoss="12.77" rerouteNo="0" devices="tripinfo_A_8" vType="typeA" speedFactor="0.99" vaporized=""/>
    <tripinfo id="B_8" depart="35.00" departLane="E1_0" departPos="5.10" departSpeed="0.78" departDelay="0.00" arrival="113.00" arrivalLane="E2_0" arrivalPos="300.00" arrivalSpeed="12.87" duration="78.00" routeLength="794.90" waitingTime="4.00" waitingCount="1" stopTime="0.00" timeLoss="15.44" rerouteNo="0" devices="tripinfo_B_8" vType="typeB" speedFactor="0.93" vaporized=""/>
    <tripinfo id="B_9" depart="49.00" departLane="E1_0" departPos="5.10" departSpeed="10.68" departDelay="0.00" arrival="116.00" arrivalLane="E2_0" arrivalPos="300.00" arrivalSpeed="12.20" duration="67.00" routeLength="794.90" waitingTime="0.00" waitingCount="0" stopTime="0.00" timeLoss="1.19" rerouteNo="0" devices="tripinfo_B_9" vType="typeB" speedFactor="0.88" vaporized=""/>
    <tripinfo id="B_10" depart="52.00" departLane="E1_0" departPos="5.10" departSpeed="4.21" departDelay="0.00" arrival="117.00" arrivalLane="E2_0" arrivalPos="300.00" arrivalSpeed="13.08" duration="65.00" routeLength="794.90" waitingTime="0.00" waitingCount="0" stopTime="0.00" timeLoss="4.16" rerouteNo="0" devices="tripinfo_B_10" vType="typeB" speedFactor="0.94" vaporized=""/>
    <tripinfo id="B_11" depart="56.00" departLane="E1_0" departPos="5.10" departSpeed="7.25" departDelay="0.00" arrival="119.00" arrivalLane="E2_0" arrivalPos="300.00" arrivalSpeed="14.14" duration="63.00" routeLength="794.90" waitingTime="0.00" waitingCount="0" stopTime="0.00" timeLoss="6.47" rerouteNo="0" devices="tripinfo_B_11" vType="typeB" speedFactor="1.02" vaporized=""/>
    <tripinfo id="A_9" depart="55.00" departLane="E1_1" departPos="5.10" departSpeed="8.89" departDelay="0.00" arrival="125.00" arrivalLane="E2_0" arrivalPos="300.00" arrivalSpeed="13.00" duration="70.00" routeLength="794.90" waitingTime="2.00" waitingCount="1" stopTime="0.00" timeLoss="8.87" rerouteNo="0" devices="tripinfo_A_9" vType="typeA" speedFactor="0.94" vaporized=""/>
    <tripinfo id="A_10" depart="56.00" departLane="E1_1" departPos="5.10" departSpeed="0.74" departDelay="0.00" arrival="127.00" arrivalLane="E2_0" arrivalPos="300.00" arrivalSpeed="16.00" duration="71.00" routeLength="794.90" waitingTime="1.00" waitingCount="1" stopTime="0.00" timeLoss="20.96" rerouteNo="0" devices="tripinfo_A_10" vType="typeA" speedFactor="1.16" vaporized=""/>
    <tripinfo id="B_12" depart="58.00" departLane="E1_0" departPos="5.10" departSpeed="4.31" departDelay="0.00" arrival="131.00" arrivalLane="E2_0" arrivalPos="300.00" arrivalSpeed="14.03" duration="73.00" routeLength="794.90" waitingTime="5.00" waitingCount="1" stopTime="0.00" timeLoss="15.99" rerouteNo="0" devices="tripinfo_B_12" vType="typeB" speedFactor="1.01" vaporized=""/>
    <tripinfo id="A_11" depart="64.00" departLane="E1_1" departPos="5.10" departSpeed="8.58" departDelay="0.00" arrival="137.00" arrivalLane="E2_0" arrivalPos="300.00" arrivalSpeed="13.54" duration="73.00" routeLength="794.90" waitingTime="4.00" waitingCount="1" stopTime="0.00" timeLoss="13.55" rerouteNo="0" devices="tripinfo_A_11" vType="typeA" speedFactor="0.98" vaporized=""/>
    <tripinfo id="A_12" depart="71.00" departLane="E1_1" departPos="5.10" departSpeed="11.60" departDelay="0.00" arrival="140.00" arrivalLane="E2_0" arrivalPos="300.00" arrivalSpeed="12.36" duration="69.00" routeLength="794.90" waitingTime="0.00" waitingCount="0" stopTime="0.00" timeLoss="4.29" rerouteNo="0" devices="tripinfo_A_12" vType="typeA" speedFactor="0.89" vaporized=""/>
    <tripinfo id="A_13" depart="73.00" departLane="E1_1" departPos="5.10" departSpeed="9.45" departDelay="0.00" arrival="144.00" arrivalLane="E2_0" arrivalPos="300.00" arrivalSpeed="11.47" duration="71.00" routeLength="794.90" waitingTime="0.00" waitingCount="0" stopTime="0.00" timeLoss="1.16" rerouteNo="0" devices="tripinfo_A_13" vType="typeA" speedFactor="0.83" vaporized=""/>
    <tripinfo id="B_13" depart="78.00" departLane="E1_0" departPos="5.10" departSpeed="7.17" departDelay="0.00" arrival="147.00" arrivalLane="E2_0" arrivalPos="300.00" arrivalSpeed="13.18" duration="69.00" routeLength="794.90" waitingTime="1.00" waitingCount="1" stopTime="0.00" timeLoss="8.43" rerouteNo="0" devices="tripinfo_B_13" vType="typeB" speedFactor="0.95" vaporized=""/>
    <tripinfo id="A_14" depart="74.00" departLane="E1_1" departPos="5.10" departSpeed="9.64" departDelay="0.00" arrival="152.00" arrivalLane="E2_0" arrivalPos="300.00" arrivalSpeed="12.12" duration="78.00" routeLength="794.90" waitingTime="2.00" waitingCount="1" stopTime="0.00" timeLoss="11.80" rerouteNo="0" devices="tripinfo_A_14" vType="typeA" speedFactor="0.87" vaporized=""/>
    <tripinfo id="A_15" depart="77.00" departLane="E1_1" departPos="5.10" departSpeed="5.05" departDelay="0.00" arrival="153.00" arrivalLane="E2_0" arrivalPos="300.00" arrivalSpeed="12.74" duration="76.00" routeLength="794.90" waitingTime="2.00" waitingCount="1" stopTime="0.00" timeLoss="13.56" rerouteNo="0" devices="tripinfo_A_15" vType="typeA" speedFactor="0.92" vaporized=""/>
    <tripinfo id="A_16" depart="79.00" departLane="E1_1" departPos="5.10" departSpeed="3.72" departDelay="0.00" arrival="155.00" arrivalLane="E2_0" arrivalPos="300.00" arrivalSpeed="15.12" duration="76.00" routeLength="794.90" waitingTime="2.00" waitingCount="1" stopTime="0.00" timeLoss="24.86" rerouteNo="0" devices="tripinfo_A_16" vType="typeA" speedFactor="1.13" vaporized=""/>
    <tripinfo id="B_14" depart="94.00" departLane="E1_0" departPos="5.10" departSpeed="4.94" departDelay="0.00" arrival="157.00" arrivalLane="E2_0" arrivalPos="300.00" arrivalSpeed="16.37" duration="63.00" routeLength="794.90" waitingTime="2.00" waitingCount="1" stopTime="0.00" timeLoss="14.11" rerouteNo="0" devices="tripinfo_B_14" vType="typeB" speedFactor="1.18" vaporized=""/>
    <tripinfo id="A_17" depart="87.00" departLane="E1_1" departPos="5.10" departSpeed="0.42" departDelay="0.00" arrival="164.00" arrivalLane="E2_0" arrivalPos="300.00" arrivalSpeed="12.94" duration="77.00" routeLength="794.90" waitingTime="3.00" waitingCount="1" stopTime="0.00" timeLoss="14.65" rerouteNo="0" devices="tripinfo_A_17" vType="typeA" speedFactor="0.93" vaporized=""/>
    <tripinfo id="B_15" depart="96.00" departLane="E1_0" departPos="5.10" departSpeed="2.55" departDelay="1.00" arrival="165.00" arrivalLane="E2_0" arrivalPos="300.00" arrivalSpeed="14.71" duration="69.00" routeLength="794.90" waitingTime="1.00" waitingCount="1" stopTime="0.00" timeLoss="19.16" rerouteNo="0" devices="tripinfo_B_15" vType="typeB" speedFactor="1.15" vaporized=""/>
    <tripinfo id="A_18" depart="101.00" departLane="E1_1" departPos="5.10" departSpeed="13.36" departDelay="0.00" arrival="168.00" arrivalLane="E2_0" arrivalPos="300.00" arrivalSpeed="13.96" duration="67.00" routeLength="794.90" waitingTime="1.00" waitingCount="1" stopTime="0.00" timeLoss="9.79" rerouteNo="0" devices="tripinfo_A_18" vType="typeA" speedFactor="1.01" vaporized=""/>
    <tripinfo id="B_16" depart="103.00" departLane="E1_0" departPos="5.10" departSpeed="0.49" departDelay="0.00" arrival="170.00" arrivalLane="E2_0" arrivalPos="300.00" arrivalSpeed="16.28" duration="67.00" routeLength="794.90" waitingTime="2.00" waitingCount="1" stopTime="0.00" timeLoss="17.78" rerouteNo="0" devices="tripinfo_B_16" vType="typeB" speedFactor="1.17" vaporized=""/>
    <tripinfo id="A_19" depart="104.00" departLane="E1_1" departPos="5.10" departSpeed="9.47" departDelay="0.00" arrival="175.00" arrivalLane="E2_0" arrivalPos="300.00" arrivalSpeed="13.82" duration="71.00" routeLength="794.90" waitingTime="2.00" waitingCount="1" stopTime="0.00" timeLoss="13.37" rerouteNo="0" devices="tripinfo_A_19" vType="typeA" speedFactor="0.99" vaporized=""/>
    <tripinfo id="B_17" depart="106.00" departLane="E1_0" departPos="5.10" departSpeed="4.31" departDelay="0.00" arrival="178.00" arrivalLane="E2_0" arrivalPos="300.00" arrivalSpeed="14.16" duration="72.00" routeLength="794.90" waitingTime="1.00" waitingCount="1" stopTime="0.00" timeLoss="15.36" rerouteNo="0" devices="tripinfo_B_17" vType="typeB" speedFactor="1.02" vaporized=""/>
    <tripinfo id="A_20" depart="110.00" departLane="E1_1" departPos="5.10" departSpeed="2.05" departDelay="0.00" arrival="180.00" arrivalLane="E2_0" arrivalPos="300.00" arrivalSpeed="16.39" duration="70.00" routeLength="794.90" waitingTime="2.00" waitingCount="2" stopTime="0.00" timeLoss="20.60" rerouteNo="0" devices="tripinfo_A_20" vType="typeA" speedFactor="1.18" vaporized=""/>
    <tripinfo id="B_18" depart="108.00" departLane="E1_0" departPos="5.10" departSpeed="1.75" departDelay="0.00" arrival="185.00" arrivalLane="E2_0" arrivalPos="300.00" arrivalSpeed="13.52" duration="77.00" routeLength="794.90" waitingTime="2.00" waitingCount="2" stopTime="0.00" timeLoss="17.47" rerouteNo="0" devices="tripinfo_B_18" vType="typeB" speedFactor="0.97" vaporized=""/>
    <tripinfo id="B_19" depart="113.00" departLane="E1_0" departPos="5.10" departSpeed="6.30" departDelay="0.00" arrival="186.00" arrivalLane="E2_0" arrivalPos="300.00" arrivalSpeed="15.02" duration="73.00" routeLength="794.90" waitingTime="2.00" waitingCount="2" stopTime="0.00" timeLoss="20.83" rerouteNo="0" devices="tripinfo_B_19" vType="typeB" speedFactor="1.10" vaporized=""/>
    <tripinfo id="B_20" depart="117.00" departLane="E1_0" departPos="5.10" departSpeed="12.07" departDelay="0.00" arrival="190.00" arrivalLane="E2_0" arrivalPos="300.00" arrivalSpeed="12.51" duration="73.00" routeLength="794.90" waitingTime="1.00" waitingCount="1" stopTime="0.00" timeLoss="9.28" rerouteNo="0" devices="tripinfo_B_20" vType="typeB" speedFactor="0.90" vaporized=""/>
    <tripinfo id="B_21" depart="121.00" departLane="E1_0" departPos="5.10" departSpeed="3.78" departDelay="0.00" arrival="192.00" arrivalLane="E2_0" arrivalPos="300.00" arrivalSpeed="14.31" duration="71.00" routeLength="794.90" waitingTime="0.00" waitingCount="0" stopTime="0.00" timeLoss="14.73" rerouteNo="0" devices="tripinfo_B_21" vType="typeB" speedFactor="1.03" vaporized=""/>
    <tripinfo id="B_22" depart="129.00" departLane="E1_0" departPos="5.10" departSpeed="2.55" departDelay="0.00" arrival="193.00" arrivalLane="E2_0" arrivalPos="300.00" arrivalSpeed="15.17" duration="64.00" routeLength="794.90" waitingTime="0.00" waitingCount="0" stopTime="0.00" timeLoss="11.35" rerouteNo="0" devices="tripinfo_B_22" vType="typeB" speedFactor="1.09" vaporized=""/>
    <tripinfo id="A_21" depart="126.00" departLane="E1_1" departPos="5.10" departSpeed="2.97" departDelay="0.00" arrival="200.00" arrivalLane="E2_0" arrivalPos="300.00" arrivalSpeed="13.29" duration="74.00" routeLength="794.90" waitingTime="4.00" waitingCount="1" stopTime="0.00" timeLoss="13.79" rerouteNo="0" devices="tripinfo_A_21" vType="typeA" speedFactor="0.96" vaporized=""/>
    <tripinfo id="A_22" depart="132.00" departLane="E1_1" departPos="5.10" departSpeed="8.24" departDelay="0.00" arrival="202.00" arrivalLane="E2_0" arrivalPos="300.00" arrivalSpeed="14.41" duration="70.00" routeLength="794.90" waitingTime="4.00" waitingCount="1" stopTime="0.00" timeLoss="13.91" rerouteNo="0" devices="tripinfo_A_22" vType="typeA" speedFactor="1.04" vaporized=""/>
    <tripinfo id="A_23" depart="137.00" departLane="E1_1" departPos="5.10" departSpeed="12.27" departDelay="0.00" arrival="203.00" arrivalLane="E2_0" arrivalPos="300.00" arrivalSpeed="15.11" duration="66.00" routeLength="794.90" waitingTime="2.00" waitingCount="1" stopTime="0.00" timeLoss="12.95" rerouteNo="0" devices="tripinfo_A_23" vType="typeA" speedFactor="1.09" vaporized=""/>
    <tripinfo id="B_23" depart="134.00" departLane="E1_0" departPos="5.10" departSpeed="3.50" departDelay="0.00" arrival="208.00" arrivalLane="E2_0" arrivalPos="300.00" arrivalSpeed="14.49" duration="74.00" routeLength="794.90" waitingTime="8.00" waitingCount="1" stopTime="0.00" timeLoss="18.26" rerouteNo="0" devices="tripinfo_B_23" vType="typeB" speedFactor="1.04" vaporized=""/>
    <tripinfo id="A_24" depart="140.00" departLane="E1_1" departPos="5.10" departSpeed="1.23" departDelay="0.00" arrival="212.00" arrivalLane="E2_0" arrivalPos="300.00" arrivalSpeed="13.85" duration="72.00" routeLength="794.90" waitingTime="2.00" waitingCount="1" stopTime="0.00" timeLoss="14.48" rerouteNo="0" devices="tripinfo_A_24" vType="typeA" speedFactor="1.00" vaporized=""/>
    <tripinfo id="A_25" depart="143.00" departLane="E1_1" departPos="5.10" departSpeed="5.56" departDelay="0.00" arrival="216.00" arrivalLane="E2_0" arrivalPos="300.00" arrivalSpeed="12.51" duration="73.00" routeLength="794.90" waitingTime="0.00" waitingCount="0" stopTime="0.00" timeLoss="8.80" rerouteNo="0" devices="tripinfo_A_25" vType="typeA" speedFactor="0.90" vaporized=""/>
    <tripinfo id="B_24" depart="153.00" departLane="E1_0" departPos="5.10" departSpeed="8.72" departDelay="0.00" arrival="219.00" arrivalLane="E2_0" arrivalPos="300.00" arrivalSpeed="12.18" duration="66.00" routeLength="794.90" waitingTime="0.00" waitingCount="0" stopTime="0.00" timeLoss="0.36" rerouteNo="0" devices="tripinfo_B_24" vType="typeB" speedFactor="0.88" vaporized=""/>
    <tripinfo id="A_26" depart="159.00" departLane="E1_1" departPos="5.10" departSpeed="8.21" departDelay="0.00" arrival="227.00" arrivalLane="E2_0" arrivalPos="300.00" arrivalSpeed="11.87" duration="68.00" routeLength="794.90" waitingTime="0.00" waitingCount="0" stopTime="0.00" timeLoss="0.24" rerouteNo="0" devices="tripinfo_A_26" vType="typeA" speedFactor="0.85" vaporized=""/>
    <tripinfo id="A_27" depart="165.00" departLane="E1_1" departPos="5.10" departSpeed="13.56" departDelay="0.00" arrival="228.00" arrivalLane="E2_0" arrivalPos="300.00" arrivalSpeed="13.38" duration="63.00" routeLength="794.90" waitingTime="0.00" waitingCount="0" stopTime="0.00" timeLoss="6.45" rerouteNo="0" devices="tripinfo_A_27" vType="typeA" speedFactor="1.02" vaporized=""/>
    <tripinfo id="B_25" depart="158.00" departLane="E1_0" departPos="5.10" departSpeed="7.04" departDelay="0.00" arrival="234.00" arrivalLane="E2_0" arrivalPos="300.00" arrivalSpeed="11.81" duration="76.00" routeLength="794.90" waitingTime="2.00" waitingCount="1" stopTime="0.00" timeLoss="8.63" rerouteNo="0" devices="tripinfo_B_25" vType="typeB" speedFactor="0.85" vaporized=""/>
    <tripinfo id="B_26" depart="163.00" departLane="E1_0" departPos="5.10" departSpeed="15.18" departDelay="0.00" arrival="236.00" arrivalLane="E2_0" arrivalPos="300.00" arrivalSpeed="14.81" duration="73.00" routeLength="794.90" waitingTime="2.00" waitingCount="1" stopTime="0.00" timeLoss="23.45" rerouteNo="0" devices="tripinfo_B_26" vType="typeB" speedFactor="1.17" vaporized=""/>
    <tripinfo id="A_28" depart="166.00" departLane="E1_1" departPos="5.10" departSpeed="4.68" departDelay="0.00" arrival="237.00" arrivalLane="E2_0" arrivalPos="300.00" arrivalSpeed="15.22" duration="71.00" routeLength="794.90" waitingTime="4.00" waitingCount="1" stopTime="0.00" timeLoss="18.78" rerouteNo="0" devices="tripinfo_A_28" vType="typeA" speedFactor="1.10" vaporized=""/>
    <tripinfo id="B_27" depart="167.00" departLane="E1_0" departPos="5.10" departSpeed="6.86" departDelay="0.00" arrival="240.00" arrivalLane="E2_0" arrivalPos="300.00" arrivalSpeed="13.93" duration="73.00" routeLength="794.90" waitingTime="3.00" waitingCount="2" stopTime="0.00" timeLoss="15.71" rerouteNo="0" devices="tripinfo_B_27" vType="typeB" speedFactor="1.00" vaporized=""/>
    <tripinfo id="B_28" depart="175.00" departLane="E1_0" departPos="5.10" departSpeed="8.03" departDelay="0.00" arrival="242.00" arrivalLane="E2_0" arrivalPos="300.00" arrivalSpeed="13.83" duration="67.00" routeLength="794.90" waitingTime="0.00" waitingCount="0" stopTime="0.00" timeLoss="8.96" rerouteNo="0" devices="tripinfo_B_28" vType="typeB" speedFactor="1.00" vaporized=""/>
    <tripinfo id="A_29" depart="176.00" departLane="E1_1" departPos="5.10" departSpeed="2.10" departDelay="0.00" arrival="249.00" arrivalLane="E2_0" arrivalPos="300.00" arrivalSpeed="12.49" duration="73.00" routeLength="794.90" waitingTime="0.00" waitingCount="0" stopTime="0.00" timeLoss="8.35" rerouteNo="0" devices="tripinfo_A_29" vType="typeA" speedFactor="0.90" vaporized=""/>
    <tripinfo id="A_30" depart="181.00" departLane="E1_1" departPos="5.10" departSpeed="12.27" departDelay="0.00" arrival="250.00" arrivalLane="E2_0" arrivalPos="300.00" arrivalSpeed="13.99" duration="69.00" routeLength="794.90" waitingTime="0.00" waitingCount="0" stopTime="0.00" timeLoss="18.52" rerouteNo="0" devices="tripinfo_A_30" vType="typeA" speedFactor="1.14" vaporized=""/>
    <tripinfo id="A_31" depart="190.00" departLane="E1_1" departPos="5.10" departSpeed="2.61" departDelay="0.00" arrival="252.00" arrivalLane="E2_0" arrivalPos="300.00" arrivalSpeed="14.22" duration="62.00" routeLength="794.90" waitingTime="0.00" waitingCount="0" stopTime="0.00" timeLoss="5.21" rerouteNo="0" devices="tripinfo_A_31" vType="typeA" speedFactor="1.02" vaporized=""/>
    <tripinfo id="B_29" depart="194.00" departLane="E1_0" departPos="5.10" departSpeed="8.64" departDelay="0.00" arrival="255.00" arrivalLane="E2_0" arrivalPos="300.00" arrivalSpeed="13.47" duration="61.00" routeLength="794.90" waitingTime="0.00" waitingCount="0" stopTime="0.00" timeLoss="1.77" rerouteNo="0" devices="tripinfo_B_29" vType="typeB" speedFactor="0.97" vaporized=""/>
    <tripinfo id="B_30" depart="195.00" departLane="E1_0" departPos="5.10" departSpeed="2.28" departDelay="0.00" arrival="257.00" arrivalLane="E2_0" arrivalPos="300.00" arrivalSpeed="15.04" duration="62.00" routeLength="794.90" waitingTime="0.00" waitingCount="0" stopTime="0.00" timeLoss="8.56" rerouteNo="0" devices="tripinfo_B_30" vType="typeB" speedFactor="1.08" vaporized=""/>
    <tripinfo id="A_32" depart="197.00" departLane="E1_1" departPos="5.10" departSpeed="0.43" departDelay="0.00" arrival="263.00" arrivalLane="E2_0" arrivalPos="300.00" arrivalSpeed="15.55" duration="66.00" routeLength="794.90" waitingTime="1.00" waitingCount="1" stopTime="0.00" timeLoss="13.93" rerouteNo="0" devices="tripinfo_A_32" vType="typeA" speedFactor="1.12" vaporized=""/>
    <tripinfo id="A_33" depart="203.00" departLane="E1_1" departPos="5.10" departSpeed="3.93" departDelay="0.00" arrival="266.00" arrivalLane="E2_0" arrivalPos="300.00" arrivalSpeed="14.11" duration="63.00" routeLength="794.90" waitingTime="0.00" waitingCount="0" stopTime="0.00" timeLoss="5.84" rerouteNo="0" devices="tripinfo_A_33" vType="typeA" speedFactor="1.02" vaporized=""/>
    <tripinfo id="B_31" depart="213.00" departLane="E1_0" departPos="5.10" departSpeed="7.50" departDelay="0.00" arrival="272.00" arrivalLane="E2_0" arrivalPos="300.00" arrivalSpeed="13.71" duration="59.00" routeLength="794.90" waitingTime="0.00" waitingCount="0" stopTime="0.00" timeLoss="0.72" rerouteNo="0" devices="tripinfo_B_31" vType="typeB" speedFactor="0.99" vaporized=""/>
    <tripinfo id="A_34" depart="217.00" departLane="E1_1" departPos="5.10" departSpeed="12.09" departDelay="0.00" arrival="279.00" arrivalLane="E2_0" arrivalPos="300.00" arrivalSpeed="13.02" duration="62.00" routeLength="794.90" waitingTime="0.00" waitingCount="0" stopTime="0.00" timeLoss="0.00" rerouteNo="0" devices="tripinfo_A_34" vType="typeA" speedFactor="0.94" vaporized=""/>
    <tripinfo id="B_32" depart="220.00" departLane="E1_0" departPos="5.10" departSpeed="2.25" departDelay="0.00" arrival="286.00" arrivalLane="E2_0" arrivalPos="300.00" arrivalSpeed="12.60" duration="66.00" routeLength="794.90" waitingTime="0.00" waitingCount="0" stopTime="0.00" timeLoss="2.43" rerouteNo="0" devices="tripinfo_B_32" vType="typeB" speedFactor="0.91" vaporized=""/>
    <tripinfo id="A_35" depart="220.00" departLane="E1_1" departPos="5.10" departSpeed="0.82" departDelay="0.00" arrival="290.00" arrivalLane="E2_0" arrivalPos="300.00" arrivalSpeed="12.26" duration="70.00" routeLength="794.90" waitingTime="0.00" waitingCount="0" stopTime="0.00" timeLoss="5.01" rerouteNo="0" devices="tripinfo_A_35" vType="typeA" speedFactor="0.88" vaporized=""/>
    <tripinfo id="A_36" depart="229.00" departLane="E1_1" departPos="5.10" departSpeed="4.53" departDelay="0.00" arrival="292.00" arrivalLane="E2_0" arrivalPos="300.00" arrivalSpeed="14.44" duration="63.00" routeLength="794.90" waitingTime="0.00" waitingCount="0" stopTime="0.00" timeLoss="7.29" rerouteNo="0" devices="tripinfo_A_36" vType="typeA" speedFactor="1.04" vaporized=""/>
    <tripinfo id="B_33" depart="228.00" departLane="E1_0" departPos="5.10" departSpeed="12.61" departDelay="0.00" arrival="297.00" arrivalLane="E2_0" arrivalPos="300.00" arrivalSpeed="12.70" duration="69.00" routeLength="794.90" waitingTime="0.00" waitingCount="0" stopTime="0.00" timeLoss="6.21" rerouteNo="0" devices="tripinfo_B_33" vType="typeB" speedFactor="0.91" vaporized=""/>
    <tripinfo id="B_34" depart="233.00" departLane="E1_0" departPos="5.10" departSpeed="4.81" departDelay="0.00" arrival="299.00" arrivalLane="E2_0" arrivalPos="300.00" arrivalSpeed="14.20" duration="66.00" routeLength="794.90" waitingTime="0.00" waitingCount="0" stopTime="0.00" timeLoss="9.25" rerouteNo="0" devices="tripinfo_B_34" vType="typeB" speedFactor="1.02" vaporized=""/>
    <tripinfo id="B_35" depart="235.00" departLane="E1_0" departPos="5.10" departSpeed="1.22" departDelay="0.00" arrival="300.00" arrivalLane="E2_0" arrivalPos="300.00" arrivalSpeed="14.21" duration="65.00" routeLength="794.90" waitingTime="0.00" waitingCount="0" stopTime="0.00" timeLoss="8.83" rerouteNo="0" devices="tripinfo_B_35" vType="typeB" speedFactor="1.02" vaporized=""/>
    <tripinfo id="B_36" depart="238.00" departLane="E1_0" departPos="5.10" departSpeed="2.80" departDelay="1.00" arrival="302.00" arrivalLane="E2_0" arrivalPos="300.00" arrivalSpeed="13.51" duration="64.00" routeLength="794.90" waitingTime="0.00" waitingCount="0" stopTime="0.00" timeLoss="4.96" rerouteNo="0" devices="tripinfo_B_36" vType="typeB" speedFactor="0.97" vaporized=""/>
    <tripinfo id="A_37" depart="244.00" departLane="E1_1" departPos="5.10" departSpeed="2.36" departDelay="0.00" arrival="308.00" arrivalLane="E2_0" arrivalPos="300.00" arrivalSpeed="13.06" duration="64.00" routeLength="794.90" waitingTime="0.00" waitingCount="0" stopTime="0.00" timeLoss="2.58" rerouteNo="0" devices="tripinfo_A_37" vType="typeA" speedFactor="0.94" vaporized=""/>
    <tripinfo id="A_38" depart="249.00" departLane="E1_1" departPos="5.10" departSpeed="0.69" departDelay="0.00" arrival="310.00" arrivalLane="E2_0" arrivalPos="300.00" arrivalSpeed="14.66" duration="61.00" routeLength="794.90" waitingTime="0.00" waitingCount="0" stopTime="0.00" timeLoss="5.80" rerouteNo="0" devices="tripinfo_A_38" vType="typeA" speedFactor="1.06" vaporized=""/>
    <tripinfo id="B_37" depart="249.00" departLane="E1_0" departPos="5.10" departSpeed="1.06" departDelay="0.00" arrival="315.00" arrivalLane="E2_0" arrivalPos="300.00" arrivalSpeed="13.27" duration="66.00" routeLength="794.90" waitingTime="0.00" waitingCount="0" stopTime="0.00" timeLoss="5.23" rerouteNo="0" devices="tripinfo_B_37" vType="typeB" speedFactor="0.96" vaporized=""/>