<?xml version="1.0" encoding="UTF-8"?>

<!-- generated on Mon Jan  4 14:38:33 2021 by Eclipse SUMO sumo Version 1.7.0
<configuration xmlns:xsi="http://www.w3.org/2001/XMLSchema-instance" xsi:noNamespaceSchemaLocation="http://sumo.dlr.de/xsd/sumoConfiguration.xsd">

    <input>
        <net-file value="laneMerging.net.xml"/>
        <route-files value="laneMerging.rou.xml"/>
        <additional-files value="laneMerging.add.xml"/>
    </input>

    <output>
        <tripinfo-output value="tripinfo_dp.xml"/>
    </output>

    <report>
        <no-warnings value="true"/>
        <duration-log.disable value="true"/>
        <no-step-log value="true"/>
    </report>

    <traci_server>
        <remote-port value="59629"/>
    </traci_server>

    <gui_only>
        <gui-settings-file value="laneMerging.view.xml"/>
        <start value="true"/>
    </gui_only>

</configuration>
-->

<tripinfos xmlns:xsi="http://www.w3.org/2001/XMLSchema-instance" xsi:noNamespaceSchemaLocation="http://sumo.dlr.de/xsd/tripinfo_file.xsd">
    <tripinfo id="B_1" depart="14.00" departLane="E1_0" departPos="5.10" departSpeed="13.12" departDelay="0.00" arrival="75.00" arrivalLane="E2_0" arrivalPos="400.00" arrivalSpeed="14.72" duration="61.00" routeLength="894.90" waitingTime="0.00" waitingCount="0" stopTime="0.00" timeLoss="0.01" rerouteNo="0" devices="tripinfo_B_1" vType="typeB" speedFactor="1.06" vaporized=""/>
    <tripinfo id="B_2" depart="15.00" departLane="E1_0" departPos="5.10" departSpeed="9.29" departDelay="0.00" arrival="84.00" arrivalLane="E2_0" arrivalPos="400.00" arrivalSpeed="13.03" duration="69.00" routeLength="894.90" waitingTime="0.00" waitingCount="0" stopTime="0.00" timeLoss="0.23" rerouteNo="0" devices="tripinfo_B_2" vType="typeB" speedFactor="0.94" vaporized=""/>
    <tripinfo id="B_3" depart="18.00" departLane="E1_0" departPos="5.10" departSpeed="7.39" departDelay="0.00" arrival="86.00" arrivalLane="E2_0" arrivalPos="400.00" arrivalSpeed="15.04" duration="68.00" routeLength="894.90" waitingTime="0.00" waitingCount="0" stopTime="0.00" timeLoss="7.85" rerouteNo="0" devices="tripinfo_B_3" vType="typeB" speedFactor="1.08" vaporized=""/>
    <tripinfo id="A_1" depart="16.00" departLane="E1_1" departPos="5.10" departSpeed="0.64" departDelay="0.00" arrival="92.00" arrivalLane="E2_0" arrivalPos="400.00" arrivalSpeed="14.03" duration="76.00" routeLength="894.90" waitingTime="1.00" waitingCount="1" stopTime="0.00" timeLoss="12.00" rerouteNo="0" devices="tripinfo_A_1" vType="typeA" speedFactor="1.01" vaporized=""/>
    <tripinfo id="B_4" depart="26.00" departLane="E1_0" departPos="5.10" departSpeed="8.44" departDelay="0.00" arrival="94.00" arrivalLane="E2_0" arrivalPos="400.00" arrivalSpeed="14.31" duration="68.00" routeLength="894.90" waitingTime="0.00" waitingCount="0" stopTime="0.00" timeLoss="4.77" rerouteNo="0" devices="tripinfo_B_4" vType="typeB" speedFactor="1.03" vaporized=""/>
    <tripinfo id="A_2" depart="31.00" departLane="E1_1" departPos="5.10" departSpeed="0.50" departDelay="0.00" arrival="112.00" arrivalLane="E2_0" arrivalPos="400.00" arrivalSpeed="11.54" duration="81.00" routeLength="894.90" waitingTime="0.00" waitingCount="0" stopTime="0.00" timeLoss="3.06" rerouteNo="0" devices="tripinfo_A_2" vType="typeA" speedFactor="0.83" vaporized=""/>
    <tripinfo id="A_3" depart="38.00" departLane="E1_1" departPos="5.10" departSpeed="10.80" departDelay="0.00" arrival="114.00" arrivalLane="E2_0" arrivalPos="400.00" arrivalSpeed="14.53" duration="76.00" routeLength="894.90" waitingTime="0.00" waitingCount="0" stopTime="0.00" timeLoss="13.48" rerouteNo="0" devices="tripinfo_A_3" vType="typeA" speedFactor="1.05" vaporized=""/>
    <tripinfo id="A_4" depart="42.00" departLane="E1_1" departPos="5.10" departSpeed="7.10" departDelay="0.00" arrival="115.00" arrivalLane="E2_0" arrivalPos="400.00" arrivalSpeed="13.03" duration="73.00" routeLength="894.90" waitingTime="0.00" waitingCount="0" stopTime="0.00" timeLoss="4.00" rerouteNo="0" devices="tripinfo_A_4" vType="typeA" speedFactor="0.94" vaporized=""/>
    <tripinfo id="B_5" depart="40.00" departLane="E1_0" departPos="5.10" departSpeed="3.05" departDelay="0.00" arrival="123.00" arrivalLane="E2_0" arrivalPos="400.00" arrivalSpeed="12.31" duration="83.00" routeLength="894.90" waitingTime="1.00" waitingCount="1" stopTime="0.00" timeLoss="9.48" rerouteNo="0" devices="tripinfo_B_5" vType="typeB" speedFactor="0.89" vaporized=""/>
    <tripinfo id="B_6" depart="53.00" departLane="E1_0" departPos="5.10" departSpeed="9.59" departDelay="0.00" arrival="124.00" arrivalLane="E2_0" arrivalPos="400.00" arrivalSpeed="13.81" duration="71.00" routeLength="894.90" waitingTime="0.00" waitingCount="0" stopTime="0.00" timeLoss="7.95" rerouteNo="0" devices="tripinfo_B_6" vType="typeB" speedFactor="1.03" vaporized=""/>
    <tripinfo id="A_5" depart="49.00" departLane="E1_1" departPos="5.10" departSpeed="8.87" departDelay="0.00" arrival="132.00" arrivalLane="E2_0" arrivalPos="400.00" arrivalSpeed="11.90" duration="83.00" routeLength="894.90" waitingTime="0.00" waitingCount="0" stopTime="0.00" timeLoss="6.85" rerouteNo="0" devices="tripinfo_A_5" vType="typeA" speedFactor="0.86" vaporized=""/>
    <tripinfo id="B_7" depart="58.00" departLane="E1_0" departPos="5.10" departSpeed="6.78" departDelay="0.00" arrival="133.00" arrivalLane="E2_0" arrivalPos="400.00" arrivalSpeed="13.52" duration="75.00" routeLength="894.90" waitingTime="1.00" waitingCount="1" stopTime="0.00" timeLoss="13.13" rerouteNo="0" devices="tripinfo_B_7" vType="typeB" speedFactor="1.05" vaporized=""/>
    <tripinfo id="B_8" depart="59.00" departLane="E1_0" departPos="5.10" departSpeed="6.47" departDelay="0.00" arrival="135.00" arrivalLane="E2_0" arrivalPos="400.00" arrivalSpeed="13.77" duration="76.00" routeLength="894.90" waitingTime="0.00" waitingCount="0" stopTime="0.00" timeLoss="10.20" rerouteNo="0" devices="tripinfo_B_8" vType="typeB" speedFactor="0.99" vaporized=""/>
    <tripinfo id="B_9" depart="61.00" departLane="E1_0" departPos="5.10" departSpeed="0.78" departDelay="1.00" arrival="137.00" arrivalLane="E2_0" arrivalPos="400.00" arrivalSpeed="12.87" duration="76.00" routeLength="894.90" waitingTime="0.00" waitingCount="0" stopTime="0.00" timeLoss="5.80" rerouteNo="0" devices="tripinfo_B_9" vType="typeB" speedFactor="0.93" vaporized=""/>
    <tripinfo id="B_10" depart="76.00" departLane="E1_0" departPos="5.10" departSpeed="8.89" departDelay="0.00" arrival="146.00" arrivalLane="E2_0" arrivalPos="400.00" arrivalSpeed="13.00" duration="70.00" routeLength="894.90" waitingTime="0.00" waitingCount="0" stopTime="0.00" timeLoss="0.29" rerouteNo="0" devices="tripinfo_B_10" vType="typeB" speedFactor="0.94" vaporized=""/>
    <tripinfo id="B_11" depart="85.00" departLane="E1_0" departPos="5.10" departSpeed="0.74" departDelay="0.00" arrival="147.00" arrivalLane="E2_0" arrivalPos="400.00" arrivalSpeed="14.89" duration="62.00" routeLength="894.90" waitingTime="0.00" waitingCount="0" stopTime="0.00" timeLoss="6.14" rerouteNo="0" devices="tripinfo_B_11" vType="typeB" speedFactor="1.16" vaporized=""/>
    <tripinfo id="A_6" depart="51.00" departLane="E1_1" departPos="5.10" departSpeed="0.09" departDelay="0.00" arrival="156.00" arrivalLane="E2_0" arrivalPos="400.00" arrivalSpeed="15.15" duration="105.00" routeLength="894.90" waitingTime="25.00" waitingCount="1" stopTime="0.00" timeLoss="44.95" rerouteNo="0" devices="tripinfo_A_6" vType="typeA" speedFactor="1.09" vaporized=""/>
    <tripinfo id="B_12" depart="91.00" departLane="E1_0" departPos="5.10" departSpeed="7.25" departDelay="0.00" arrival="159.00" arrivalLane="E2_0" arrivalPos="400.00" arrivalSpeed="14.14" duration="68.00" routeLength="894.90" waitingTime="0.00" waitingCount="0" stopTime="0.00" timeLoss="3.97" rerouteNo="0" devices="tripinfo_B_12" vType="typeB" speedFactor="1.02" vaporized=""/>
    <tripinfo id="B_13" depart="99.00" departLane="E1_0" departPos="5.10" departSpeed="4.31" departDelay="0.00" arrival="165.00" arrivalLane="E2_0" arrivalPos="400.00" arrivalSpeed="14.03" duration="66.00" routeLength="894.90" waitingTime="0.00" waitingCount="0" stopTime="0.00" timeLoss="1.91" rerouteNo="0" devices="tripinfo_B_13" vType="typeB" speedFactor="1.01" vaporized=""/>
    <tripinfo id="A_7" depart="59.00" departLane="E1_1" departPos="5.10" departSpeed="7.05" departDelay="0.00" arrival="171.00" arrivalLane="E2_0" arrivalPos="400.00" arrivalSpeed="15.60" duration="112.00" routeLength="894.90" waitingTime="36.00" waitingCount="2" stopTime="0.00" timeLoss="54.05" rerouteNo="0" devices="tripinfo_A_7" vType="typeA" speedFactor="1.12" vaporized=""/>
    <tripinfo id="A_8" depart="70.00" departLane="E1_1" departPos="5.10" departSpeed="10.68" departDelay="0.00" arrival="179.00" arrivalLane="E2_0" arrivalPos="400.00" arrivalSpeed="12.20" duration="109.00" routeLength="894.90" waitingTime="25.00" waitingCount="2" stopTime="0.00" timeLoss="34.71" rerouteNo="0" devices="tripinfo_A_8" vType="typeA" speedFactor="0.88" vaporized=""/>
    <tripinfo id="B_14" depart="106.00" departLane="E1_0" departPos="5.10" departSpeed="11.60" departDelay="0.00" arrival="180.00" arrivalLane="E2_0" arrivalPos="400.00" arrivalSpeed="12.36" duration="74.00" routeLength="894.90" waitingTime="0.00" waitingCount="0" stopTime="0.00" timeLoss="1.25" rerouteNo="0" devices="tripinfo_B_14" vType="typeB" speedFactor="0.89" vaporized=""/>
    <tripinfo id="B_15" depart="115.00" departLane="E1_0" departPos="5.10" departSpeed="9.45" departDelay="0.00" arrival="194.00" arrivalLane="E2_0" arrivalPos="400.00" arrivalSpeed="11.47" duration="79.00" routeLength="894.90" waitingTime="0.00" waitingCount="0" stopTime="0.00" timeLoss="0.05" rerouteNo="0" devices="tripinfo_B_15" vType="typeB" speedFactor="0.83" vaporized=""/>
    <tripinfo id="B_16" depart="128.00" departLane="E1_0" departPos="5.10" departSpeed="5.05" departDelay="0.00" arrival="200.00" arrivalLane="E2_0" arrivalPos="400.00" arrivalSpeed="12.74" duration="72.00" routeLength="894.90" waitingTime="0.00" waitingCount="0" stopTime="0.00" timeLoss="1.25" rerouteNo="0" devices="tripinfo_B_16" vType="typeB" speedFactor="0.92" vaporized=""/>
    <tripinfo id="B_17" depart="130.00" departLane="E1_0" departPos="5.10" departSpeed="3.12" departDelay="1.00" arrival="203.00" arrivalLane="E2_0" arrivalPos="400.00" arrivalSpeed="13.18" duration="73.00" routeLength="894.90" waitingTime="0.00" waitingCount="0" stopTime="0.00" timeLoss="4.21" rerouteNo="0" devices="tripinfo_B_17" vType="typeB" speedFactor="0.95" vaporized=""/>
    <tripinfo id="B_18" depart="132.00" departLane="E1_0" departPos="5.10" departSpeed="4.74" departDelay="1.00" arrival="204.00" arrivalLane="E2_0" arrivalPos="400.00" arrivalSpeed="14.69" duration="72.00" routeLength="894.90" waitingTime="0.00" waitingCount="0" stopTime="0.00" timeLoss="14.71" rerouteNo="0" devices="tripinfo_B_18" vType="typeB" speedFactor="1.13" vaporized=""/>
    <tripinfo id="B_19" depart="137.00" departLane="E1_0" departPos="5.10" departSpeed="14.44" departDelay="0.00" arrival="206.00" arrivalLane="E2_0" arrivalPos="400.00" arrivalSpeed="16.04" duration="69.00" routeLength="894.90" waitingTime="0.00" waitingCount="0" stopTime="0.00" timeLoss="12.35" rerouteNo="0" devices="tripinfo_B_19" vType="typeB" speedFactor="1.15" vaporized=""/>
    <tripinfo id="B_20" depart="142.00" departLane="E1_0" departPos="5.10" departSpeed="0.42" departDelay="0.00" arrival="210.00" arrivalLane="E2_0" arrivalPos="400.00" arrivalSpeed="13.96" duration="68.00" routeLength="894.90" waitingTime="0.00" waitingCount="0" stopTime="0.00" timeLoss="3.90" rerouteNo="0" devices="tripinfo_B_20" vType="typeB" speedFactor="1.01" vaporized=""/>
    <tripinfo id="A_9" depart="73.00" departLane="E1_1" departPos="5.10" departSpeed="4.21" departDelay="0.00" arrival="220.00" arrivalLane="E2_0" arrivalPos="400.00" arrivalSpeed="13.08" duration="147.00" routeLength="894.90" waitingTime="62.00" waitingCount="3" stopTime="0.00" timeLoss="78.10" rerouteNo="0" devices="tripinfo_A_9" vType="typeA" speedFactor="0.94" vaporized=""/>
    <tripinfo id="A_10" depart="105.00" departLane="E1_1" departPos="5.10" departSpeed="8.58" departDelay="0.00" arrival="222.00" arrivalLane="E2_0" arrivalPos="400.00" arrivalSpeed="13.54" duration="117.00" routeLength="894.90" waitingTime="38.00" waitingCount="1" stopTime="0.00" timeLoss="50.00" rerouteNo="0" devices="tripinfo_A_10" vType="typeA" speedFactor="0.98" vaporized=""/>
    <tripinfo id="A_11" depart="120.00" departLane="E1_1" departPos="5.10" departSpeed="10.76" departDelay="0.00" arrival="225.00" arrivalLane="E2_0" arrivalPos="400.00" arrivalSpeed="12.12" duration="105.00" routeLength="894.90" waitingTime="25.00" waitingCount="1" stopTime="0.00" timeLoss="31.04" rerouteNo="0" devices="tripinfo_A_11" vType="typeA" speedFactor="0.87" vaporized=""/>
    <tripinfo id="A_12" depart="135.00" departLane="E1_1" departPos="5.10" departSpeed="9.89" departDelay="0.00" arrival="227.00" arrivalLane="E2_0" arrivalPos="400.00" arrivalSpeed="12.94" duration="92.00" routeLength="894.90" waitingTime="13.00" waitingCount="1" stopTime="0.00" timeLoss="22.24" rerouteNo="0" devices="tripinfo_A_12" vType="typeA" speedFactor="0.93" vaporized=""/>
    <tripinfo id="A_13" depart="137.00" departLane="E1_1" departPos="5.10" departSpeed="2.60" departDelay="0.00" arrival="228.00" arrivalLane="E2_0" arrivalPos="400.00" arrivalSpeed="14.53" duration="91.00" routeLength="894.90" waitingTime="13.00" waitingCount="1" stopTime="0.00" timeLoss="36.27" rerouteNo="0" devices="tripinfo_A_13" vType="typeA" speedFactor="1.18" vaporized=""/>
    <tripinfo id="A_14" depart="150.00" departLane="E1_1" departPos="5.10" departSpeed="11.15" departDelay="0.00" arrival="230.00" arrivalLane="E2_0" arrivalPos="400.00" arrivalSpeed="16.03" duration="80.00" routeLength="894.90" waitingTime="8.00" waitingCount="1" stopTime="0.00" timeLoss="24.43" rerouteNo="0" devices="tripinfo_A_14" vType="typeA" speedFactor="1.17" vaporized=""/>
    <tripinfo id="A_15" depart="155.00" departLane="E1_1" departPos="5.10" departSpeed="4.58" departDelay="0.00" arrival="233.00" arrivalLane="E2_0" arrivalPos="400.00" arrivalSpeed="13.82" duration="78.00" routeLength="894.90" waitingTime="0.00" waitingCount="0" stopTime="0.00" timeLoss="12.44" rerouteNo="0" devices="tripinfo_A_15" vType="typeA" speedFactor="0.99" vaporized=""/>
    <tripinfo id="A_16" depart="159.00" departLane="E1_1" departPos="5.10" departSpeed="1.83" departDelay="0.00" arrival="234.00" arrivalLane="E2_0" arrivalPos="400.00" arrivalSpeed="14.16" duration="75.00" routeLength="894.90" waitingTime="0.00" waitingCount="0" stopTime="0.00" timeLoss="11.55" rerouteNo="0" devices="tripinfo_A_16" vType="typeA" speedFactor="1.02" vaporized=""/>
    <tripinfo id="A_17" depart="161.00" departLane="E1_1" departPos="5.10" departSpeed="1.69" departDelay="0.00" arrival="238.00" arrivalLane="E2_0" arrivalPos="400.00" arrivalSpeed="13.52" duration="77.00" routeLength="894.90" waitingTime="0.00" waitingCount="0" stopTime="0.00" timeLoss="10.45" rerouteNo="0" devices="tripinfo_A_17" vType="typeA" speedFactor="0.97" vaporized=""/>
    <tripinfo id="A_18" depart="173.00" departLane="E1_1" departPos="5.10" departSpeed="6.74" departDelay="0.00" arrival="240.00" arrivalLane="E2_0" arrivalPos="400.00" arrivalSpeed="16.39" duration="67.00" routeLength="894.90" waitingTime="0.00" waitingCount="0" stopTime="0.00" timeLoss="11.46" rerouteNo="0" devices="tripinfo_A_18" vType="typeA" speedFactor="1.18" vaporized=""/>
    <tripinfo id="A_19" depart="175.00" departLane="E1_1" departPos="5.10" departSpeed="9.89" departDelay="0.00" arrival="241.00" arrivalLane="E2_0" arrivalPos="400.00" arrivalSpeed="15.31" duration="66.00" routeLength="894.90" waitingTime="0.00" waitingCount="0" stopTime="0.00" timeLoss="7.17" rerouteNo="0" devices="tripinfo_A_19" vType="typeA" speedFactor="1.10" vaporized=""/>
    <tripinfo id="B_21" depart="176.00" departLane="E1_0" departPos="5.10" departSpeed="3.30" departDelay="0.00" arrival="250.00" arrivalLane="E2_0" arrivalPos="400.00" arrivalSpeed="12.51" duration="74.00" routeLength="894.90" waitingTime="0.00" waitingCount="0" stopTime="0.00" timeLoss="1.94" rerouteNo="0" devices="tripinfo_B_21" vType="typeB" speedFactor="0.90" vaporized=""/>
    <tripinfo id="B_22" depart="182.00" departLane="E1_0" departPos="5.10" departSpeed="3.19" departDelay="0.00" arrival="251.00" arrivalLane="E2_0" arrivalPos="400.00" arrivalSpeed="14.05" duration="69.00" routeLength="894.90" waitingTime="0.00" waitingCount="0" stopTime="0.00" timeLoss="6.45" rerouteNo="0" devices="tripinfo_B_22" vType="typeB" speedFactor="1.03" vaporized=""/>
    <tripinfo id="A_20" depart="184.00" departLane="E1_1" departPos="5.10" departSpeed="2.23" departDelay="0.00" arrival="256.00" arrivalLane="E2_0" arrivalPos="400.00" arrivalSpeed="13.29" duration="72.00" routeLength="894.90" waitingTime="0.00" waitingCount="0" stopTime="0.00" timeLoss="4.27" rerouteNo="0" devices="tripinfo_A_20" vType="typeA" speedFactor="0.96" vaporized=""/>
    <tripinfo id="B_23" depart="195.00" departLane="E1_0" departPos="5.10" departSpeed="8.67" departDelay="0.00" arrival="258.00" arrivalLane="E2_0" arrivalPos="400.00" arrivalSpeed="15.17" duration="63.00" routeLength="894.90" waitingTime="0.00" waitingCount="0" stopTime="0.00" timeLoss="3.41" rerouteNo="0" devices="tripinfo_B_23" vType="typeB" speedFactor="1.09" vaporized=""/>
    <tripinfo id="A_21" depart="202.00" departLane="E1_1" departPos="5.10" departSpeed="3.48" departDelay="0.00" arrival="267.00" arrivalLane="E2_0" arrivalPos="400.00" arrivalSpeed="14.41" duration="65.00" routeLength="894.90" waitingTime="0.00" waitingCount="0" stopTime="0.00" timeLoss="2.40" rerouteNo="0" devices="tripinfo_A_21" vType="typeA" speedFactor="1.04" vaporized=""/>
    <tripinfo id="A_22" depart="204.00" departLane="E1_1" departPos="5.10" departSpeed="1.29" departDelay="1.00" arrival="271.00" arrivalLane="E2_0" arrivalPos="400.00" arrivalSpeed="14.49" duration="67.00" routeLength="894.90" waitingTime="0.00" waitingCount="0" stopTime="0.00" timeLoss="4.57" rerouteNo="0" devices="tripinfo_A_22" vType="typeA" speedFactor="1.04" vaporized=""/>
    <tripinfo id="A_23" depart="207.00" departLane="E1_1" departPos="5.10" departSpeed="5.65" departDelay="0.00" arrival="273.00" arrivalLane="E2_0" arrivalPos="400.00" arrivalSpeed="15.11" duration="66.00" routeLength="894.90" waitingTime="0.00" waitingCount="0" stopTime="0.00" timeLoss="6.17" rerouteNo="0" devices="tripinfo_A_23" vType="typeA" speedFactor="1.09" vaporized=""/>
    <tripinfo id="A_24" depart="210.00" departLane="E1_1" departPos="5.10" departSpeed="9.71" departDelay="0.00" arrival="278.00" arrivalLane="E2_0" arrivalPos="400.00" arrivalSpeed="13.85" duration="68.00" routeLength="894.90" waitingTime="0.00" waitingCount="0" stopTime="0.00" timeLoss="2.91" rerouteNo="0" devices="tripinfo_A_24" vType="typeA" speedFactor="1.00" vaporized=""/>
    <tripinfo id="B_24" depart="211.00" departLane="E1_0" departPos="5.10" departSpeed="7.46" departDelay="0.00" arrival="286.00" arrivalLane="E2_0" arrivalPos="400.00" arrivalSpeed="12.51" duration="75.00" routeLength="894.90" waitingTime="0.00" waitingCount="0" stopTime="0.00" timeLoss="3.00" rerouteNo="0" devices="tripinfo_B_24" vType="typeB" speedFactor="0.90" vaporized=""/>
    <tripinfo id="A_25" depart="213.00" departLane="E1_1" departPos="5.10" departSpeed="8.42" departDelay="0.00" arrival="292.00" arrivalLane="E2_0" arrivalPos="400.00" arrivalSpeed="12.18" duration="79.00" routeLength="894.90" waitingTime="0.00" waitingCount="0" stopTime="0.00" timeLoss="4.60" rerouteNo="0" devices="tripinfo_A_25" vType="typeA" speedFactor="0.88" vaporized=""/>
    <tripinfo id="B_25" depart="223.00" departLane="E1_0" departPos="5.10" departSpeed="6.96" departDelay="0.00" arrival="293.00" arrivalLane="E2_0" arrivalPos="400.00" arrivalSpeed="13.73" duration="70.00" routeLength="894.90" waitingTime="0.00" waitingCount="0" stopTime="0.00" timeLoss="6.28" rerouteNo="0" devices="tripinfo_B_25" vType="typeB" speedFactor="1.02" vaporized=""/>
    <tripinfo id="A_26" depart="218.00" departLane="E1_1" departPos="5.10" departSpeed="11.04" departDelay="0.00" arrival="302.00" arrivalLane="E2_0" arrivalPos="400.00" arrivalSpeed="11.81" duration="84.00" routeLength="894.90" waitingTime="1.00" waitingCount="1" stopTime="0.00" timeLoss="7.63" rerouteNo="0" devices="tripinfo_A_26" vType="typeA" speedFactor="0.85" vaporized=""/>
    <tripinfo id="B_26" depart="226.00" departLane="E1_0" departPos="5.10" departSpeed="13.09" departDelay="0.00" arrival="303.00" arrivalLane="E2_0" arrivalPos="400.00" arrivalSpeed="13.42" duration="77.00" routeLength="894.90" waitingTime="3.00" waitingCount="1" stopTime="0.00" timeLoss="12.72" rerouteNo="0" devices="tripinfo_B_26" vType="typeB" speedFactor="1.00" vaporized=""/>
    <tripinfo id="A_27" depart="220.00" departLane="E1_1" departPos="5.10" departSpeed="11.40" departDelay="0.00" arrival="311.00" arrivalLane="E2_0" arrivalPos="400.00" arrivalSpeed="11.87" duration="91.00" routeLength="894.90" waitingTime="5.00" waitingCount="2" stopTime="0.00" timeLoss="14.87" rerouteNo="0" devices="tripinfo_A_27" vType="typeA" speedFactor="0.85" vaporized=""/>
    <tripinfo id="A_28" depart="223.00" departLane="E1_1" departPos="5.10" departSpeed="5.00" departDelay="0.00" arrival="312.00" arrivalLane="E2_0" arrivalPos="400.00" arrivalSpeed="13.37" duration="89.00" routeLength="894.90" waitingTime="5.00" waitingCount="2" stopTime="0.00" timeLoss="33.69" rerouteNo="0" devices="tripinfo_A_28" vType="typeA" speedFactor="1.17" vaporized=""/>
    <tripinfo id="A_29" depart="225.00" departLane="E1_1" departPos="5.10" departSpeed="2.56" departDelay="1.00" arrival="314.00" arrivalLane="E2_0" arrivalPos="400.00" arrivalSpeed="14.87" duration="89.00" routeLength="894.90" waitingTime="5.00" waitingCount="2" stopTime="0.00" timeLoss="29.52" rerouteNo="0" devices="tripinfo_A_29" vType="typeA" speedFactor="1.10" vaporized=""/>
    <tripinfo id="B_27" depart="241.00" departLane="E1_0" departPos="5.10" departSpeed="3.76" departDelay="0.00" arrival="317.00" arrivalLane="E2_0" arrivalPos="400.00" arrivalSpeed="13.47" duration="76.00" routeLength="894.90" waitingTime="0.00" waitingCount="0" stopTime="0.00" timeLoss="8.69" rerouteNo="0" devices="tripinfo_B_27" vType="typeB" speedFactor="0.97" vaporized=""/>
    <tripinfo id="A_30" depart="228.00" departLane="E1_1" departPos="5.10" departSpeed="2.54" departDelay="0.00" arrival="322.00" arrivalLane="E2_0" arrivalPos="400.00" arrivalSpeed="13.83" duration="94.00" routeLength="894.90" waitingTime="9.00" waitingCount="2" stopTime="0.00" timeLoss="28.42" rerouteNo="0" devices="tripinfo_A_30" vType="typeA" speedFactor="1.00" vaporized=""/>
    <tripinfo id="B_28" depart="246.00" departLane="E1_0" departPos="5.10" departSpeed="4.65" departDelay="0.00" arrival="327.00" arrivalLane="E2_0" arrivalPos="400.00" arrivalSpeed="13.71" duration="81.00" routeLength="894.90" waitingTime="5.00" waitingCount="1" stopTime="0.00" timeLoss="15.05" rerouteNo="0" devices="tripinfo_B_28" vType="typeB" speedFactor="0.99" vaporized=""/>
    <tripinfo id="B_29" depart="263.00" departLane="E1_0" departPos="5.10" departSpeed="8.62" departDelay="0.00" arrival="334.00" arrivalLane="E2_0" arrivalPos="400.00" arrivalSpeed="12.70" duration="71.00" routeLength="894.90" waitingTime="0.00" waitingCount="0" stopTime="0.00" timeLoss="0.29" rerouteNo="0" devices="tripinfo_B_29" vType="typeB" speedFactor="0.91" vaporized=""/>
    <tripinfo id="B_30" depart="268.00" departLane="E1_0" departPos="5.10" departSpeed="6.11" departDelay="0.00" arrival="336.00" arrivalLane="E2_0" arrivalPos="400.00" arrivalSpeed="14.44" duration="68.00" routeLength="894.90" waitingTime="0.00" waitingCount="0" stopTime="0.00" timeLoss="5.26" rerouteNo="0" devices="tripinfo_B_30" vType="typeB" speedFactor="1.04" vaporized=""/>
    <tripinfo id="A_31" depart="234.00" departLane="E1_1" departPos="5.10" departSpeed="8.01" departDelay="0.00" arrival="345.00" arrivalLane="E2_0" arrivalPos="400.00" arrivalSpeed="12.49" duration="111.00" routeLength="894.90" waitingTime="23.00" waitingCount="3" stopTime="0.00" timeLoss="39.12" rerouteNo="0" devices="tripinfo_A_31" vType="typeA" speedFactor="0.90" vaporized=""/>
    <tripinfo id="B_31" depart="279.00" departLane="E1_0" departPos="5.10" departSpeed="5.54" departDelay="0.00" arrival="347.00" arrivalLane="E2_0" arrivalPos="400.00" arrivalSpeed="14.21" duration="68.00" routeLength="894.90" waitingTime="0.00" waitingCount="0" stopTime="0.00" timeLoss="4.28" rerouteNo="0" devices="tripinfo_B_31" vType="typeB" speedFactor="1.02" vaporized=""/>
    <tripinfo id="B_32" depart="282.00" departLane="E1_0" departPos="5.10" departSpeed="10.78" departDelay="0.00" arrival="351.00" arrivalLane="E2_0" arrivalPos="400.00" arrivalSpeed="13.06" duration="69.00" routeLength="894.90" waitingTime="0.00" waitingCount="0" stopTime="0.00" timeLoss="0.17" rerouteNo="0" devices="tripinfo_B_32" vType="typeB" speedFactor="0.94" vaporized=""/>
    <tripinfo id="A_32" depart="240.00" departLane="E1_1" departPos="5.10" departSpeed="2.41" departDelay="0.00" arrival="355.00" arrivalLane="E2_0" arrivalPos="400.00" arrivalSpeed="15.87" duration="115.00" routeLength="894.90" waitingTime="32.00" waitingCount="4" stopTime="0.00" timeLoss="57.68" rerouteNo="0" devices="tripinfo_A_32" vType="typeA" speedFactor="1.14" vaporized=""/>
    <tripinfo id="A_33" depart="242.00" departLane="E1_1" departPos="5.10" departSpeed="4.21" departDelay="1.00" arrival="358.00" arrivalLane="E2_0" arrivalPos="400.00" arrivalSpeed="14.22" duration="116.00" routeLength="894.90" waitingTime="31.00" waitingCount="3" stopTime="0.00" timeLoss="53.04" rerouteNo="0" devices="tripinfo_A_33" vType="typeA" speedFactor="1.02" vaporized=""/>
    <tripinfo id="B_33" depart="290.00" departLane="E1_0" departPos="5.10" departSpeed="8.58" departDelay="0.00" arrival="362.00" arrivalLane="E2_0" arrivalPos="400.00" arrivalSpeed="14.66" duration="72.00" routeLength="894.90" waitingTime="2.00" waitingCount="1" stopTime="0.00" timeLoss="10.71" rerouteNo="0" devices="tripinfo_B_33" vType="typeB" speedFactor="1.06" vaporized=""/>
    <tripinfo id="A_34" depart="244.00" departLane="E1_1" departPos="5.10" departSpeed="1.01" departDelay="1.00" arrival="366.00" arrivalLane="E2_0" arrivalPos="400.00" arrivalSpeed="15.04" duration="122.00" routeLength="894.90" waitingTime="35.00" waitingCount="4" stopTime="0.00" timeLoss="61.66" rerouteNo="0" devices="tripinfo_A_34" vType="typeA" speedFactor="1.08" vaporized=""/>
    <tripinfo id="A_35" depart="247.00" departLane="E1_1" departPos="5.10" departSpeed="1.34" departDelay="3.00" arrival="367.00" arrivalLane="E2_0" arrivalPos="400.00" arrivalSpeed="15.55" duration="120.00" routeLength="894.90" waitingTime="35.00" waitingCount="4" stopTime="0.00" timeLoss="62.10" rerouteNo="0" devices="tripinfo_A_35" vType="typeA" speedFactor="1.12" vaporized=""/>
    <tripinfo id="A_36" depart="250.00" departLane="E1_1" departPos="5.10" departSpeed="0.66" departDelay="5.00" arrival="373.00" arrivalLane="E2_0" arrivalPos="400.00" arrivalSpeed="14.11" duration="123.00" routeLength="894.90" waitingTime="34.00" waitingCount="4" stopTime="0.00" timeLoss="59.03" rerouteNo="0" devices="tripinfo_A_36" vType="typeA" speedFactor="1.02" vaporized=""/>
    <tripinfo id="A_37" depart="257.00" departLane="E1_1" departPos="5.10" departSpeed="1.04" departDelay="0.00" arrival="377.00" arrivalLane="E2_0" arrivalPos="400.00" arrivalSpeed="13.02" duration="120.00" routeLength="894.90" waitingTime="30.00" waitingCount="3" stopTime="0.00" timeLoss="50.35" rerouteNo="0" devices="tripinfo_A_37" vType="typeA" speedFactor="0.94" vaporized=""/>
    <tripinfo id="B_34" depart="310.00" departLane="E1_0" departPos="5.10" departSpeed="5.00" departDelay="0.00" arrival="379.00" arrivalLane="E2_0" arrivalPos="400.00" arrivalSpeed="13.68" duration="69.00" routeLength="894.90" waitingTime="0.00" waitingCount="0" stopTime="0.00" timeLoss="3.40" rerouteNo="0" devices="tripinfo_B_34" vType="typeB" speedFactor="0.98" vaporized=""/>
    <tripinfo id="A_38" depart="260.00" departLane="E1_1" departPos="5.10" departSpeed="3.55" departDelay="2.00" arrival="390.00" arrivalLane="E2_0" arrivalPos="400.00" arrivalSpeed="12.26" duration="130.00" routeLength="894.90" waitingTime="34.00" waitingCount="4" stopTime="0.00" timeLoss="56.29" rerouteNo="0" devices="tripinfo_A_38" vType="typeA" speedFactor="0.88" vaporized=""/>
    <tripinfo id="B_35" depart="312.00" departLane="E1_0" departPos="5.10" departSpeed="0.34" departDelay="1.00" arrival="391.00" arrivalLane="E2_0" arrivalPos="400.00" arrivalSpeed="14.23" duration="79.00" routeLength="894.90" waitingTime="4.00" waitingCount="1" stopTime="0.00" timeLoss="16.60" rerouteNo="0" devices="tripinfo_B_35" vType="typeB" speedFactor="1.03" vaporized=""/>
    <tripinfo id="B_36" depart="322.00" departLane="E1_0" departPos="5.10" departSpeed="13.22" departDelay="0.00" arrival="393.00" arrivalLane="E2_0" arrivalPos="400.00" arrivalSpeed="15.10" duration="71.00" routeLength="894.90" waitingTime="1.00" waitingCount="1" stopTime="0.00" timeLoss="11.22" rerouteNo="0" devices="tripinfo_B_36" vType="typeB" speedFactor="1.09" vaporized=""/>
    <tripinfo id="B_37" depart="345.00" departLane="E1_0" departPos="5.10" departSpeed="11.33" departDelay="0.00" arrival="402.00" arrivalLane="E2_0" arrivalPos="400.00" arrivalSpeed="15.94" duration="57.00" routeLength="894.90" waitingTime="0.00" waitingCount="0" stopTime="0.00" timeLoss="0.30" rerouteNo="0" devices="tripinfo_B_37" vType="typeB" speedFactor="1.15" vaporized=""/>