<?xml version="1.0" encoding="UTF-8"?>

<!-- generated on Mon Jan  4 04:05:55 2021 by Eclipse SUMO GUI Version 1.7.0
<configuration xmlns:xsi="http://www.w3.org/2001/XMLSchema-instance" xsi:noNamespaceSchemaLocation="http://sumo.dlr.de/xsd/sumoConfiguration.xsd">

    <input>
        <net-file value="laneMerging.net.xml"/>
        <route-files value="laneMerging.rou.xml"/>
        <additional-files value="laneMerging.add.xml"/>
    </input>

    <output>
        <tripinfo-output value="tripinfo.xml"/>
    </output>

    <traci_server>
        <remote-port value="54203"/>
    </traci_server>

    <gui_only>
        <gui-settings-file value="laneMerging.view.xml"/>
    </gui_only>

</configuration>
-->

<tripinfos xmlns:xsi="http://www.w3.org/2001/XMLSchema-instance" xsi:noNamespaceSchemaLocation="http://sumo.dlr.de/xsd/tripinfo_file.xsd">
    <tripinfo id="B_1" depart="0.00" departLane="E1_0" departPos="5.10" departSpeed="13.12" departDelay="0.00" arrival="36.00" arrivalLane="E2_0" arrivalPos="30.00" arrivalSpeed="14.72" duration="36.00" routeLength="524.90" waitingTime="0.00" waitingCount="0" stopTime="0.00" timeLoss="0.01" rerouteNo="0" devices="tripinfo_B_1" vType="typeB" speedFactor="1.06" vaporized=""/>
    <tripinfo id="A_1" depart="6.00" departLane="E1_1" departPos="5.10" departSpeed="7.39" departDelay="0.00" arrival="42.00" arrivalLane="E2_0" arrivalPos="30.00" arrivalSpeed="15.04" duration="36.00" routeLength="524.90" waitingTime="0.00" waitingCount="0" stopTime="0.00" timeLoss="1.10" rerouteNo="0" devices="tripinfo_A_1" vType="typeA" speedFactor="1.08" vaporized=""/>
    <tripinfo id="B_2" depart="3.00" departLane="E1_0" departPos="5.10" departSpeed="9.29" departDelay="0.00" arrival="49.00" arrivalLane="E2_0" arrivalPos="30.00" arrivalSpeed="9.29" duration="46.00" routeLength="524.90" waitingTime="0.00" waitingCount="0" stopTime="0.00" timeLoss="5.69" rerouteNo="0" devices="tripinfo_B_2" vType="typeB" speedFactor="0.94" vaporized=""/>
    <tripinfo id="B_3" depart="4.00" departLane="E1_0" departPos="5.10" departSpeed="0.64" departDelay="0.00" arrival="51.00" arrivalLane="E2_0" arrivalPos="30.00" arrivalSpeed="10.85" duration="47.00" routeLength="524.90" waitingTime="0.00" waitingCount="0" stopTime="0.00" timeLoss="9.34" rerouteNo="0" devices="tripinfo_B_3" vType="typeB" speedFactor="1.01" vaporized=""/>
    <tripinfo id="B_4" depart="9.00" departLane="E1_0" departPos="5.10" departSpeed="8.44" departDelay="0.00" arrival="54.00" arrivalLane="E2_0" arrivalPos="30.00" arrivalSpeed="11.91" duration="45.00" routeLength="524.90" waitingTime="0.00" waitingCount="0" stopTime="0.00" timeLoss="7.57" rerouteNo="0" devices="tripinfo_B_4" vType="typeB" speedFactor="1.03" vaporized=""/>
    <tripinfo id="B_5" depart="13.00" departLane="E1_0" departPos="5.10" departSpeed="10.80" departDelay="0.00" arrival="55.00" arrivalLane="E2_0" arrivalPos="30.00" arrivalSpeed="11.85" duration="42.00" routeLength="524.90" waitingTime="0.00" waitingCount="0" stopTime="0.00" timeLoss="5.75" rerouteNo="0" devices="tripinfo_B_5" vType="typeB" speedFactor="1.05" vaporized=""/>
    <tripinfo id="A_2" depart="13.00" departLane="E1_1" departPos="5.10" departSpeed="0.50" departDelay="0.00" arrival="62.00" arrivalLane="E2_0" arrivalPos="30.00" arrivalSpeed="11.54" duration="49.00" routeLength="524.90" waitingTime="0.00" waitingCount="0" stopTime="0.00" timeLoss="3.06" rerouteNo="0" devices="tripinfo_A_2" vType="typeA" speedFactor="0.83" vaporized=""/>
    <tripinfo id="A_3" depart="22.00" departLane="E1_1" departPos="5.10" departSpeed="7.10" departDelay="0.00" arrival="64.00" arrivalLane="E2_0" arrivalPos="30.00" arrivalSpeed="13.03" duration="42.00" routeLength="524.90" waitingTime="0.00" waitingCount="0" stopTime="0.00" timeLoss="1.51" rerouteNo="0" devices="tripinfo_A_3" vType="typeA" speedFactor="0.94" vaporized=""/>
    <tripinfo id="B_6" depart="20.00" departLane="E1_0" departPos="5.10" departSpeed="3.05" departDelay="0.00" arrival="71.00" arrivalLane="E2_0" arrivalPos="30.00" arrivalSpeed="10.33" duration="51.00" routeLength="524.90" waitingTime="0.00" waitingCount="0" stopTime="0.00" timeLoss="7.66" rerouteNo="0" devices="tripinfo_B_6" vType="typeB" speedFactor="0.89" vaporized=""/>
    <tripinfo id="A_4" depart="23.00" departLane="E1_1" departPos="5.10" departSpeed="6.88" departDelay="0.00" arrival="73.00" arrivalLane="E2_0" arrivalPos="30.00" arrivalSpeed="10.57" duration="50.00" routeLength="524.90" waitingTime="0.00" waitingCount="0" stopTime="0.00" timeLoss="5.22" rerouteNo="0" devices="tripinfo_A_4" vType="typeA" speedFactor="0.86" vaporized=""/>
    <tripinfo id="B_7" depart="33.00" departLane="E1_0" departPos="5.10" departSpeed="0.09" departDelay="0.00" arrival="75.00" arrivalLane="E2_0" arrivalPos="30.00" arrivalSpeed="13.61" duration="42.00" routeLength="524.90" waitingTime="0.00" waitingCount="0" stopTime="0.00" timeLoss="6.76" rerouteNo="0" devices="tripinfo_B_7" vType="typeB" speedFactor="1.09" vaporized=""/>
    <tripinfo id="A_5" depart="44.00" departLane="E1_1" departPos="5.10" departSpeed="9.59" departDelay="0.00" arrival="82.00" arrivalLane="E2_0" arrivalPos="30.00" arrivalSpeed="14.26" duration="38.00" routeLength="524.90" waitingTime="0.00" waitingCount="0" stopTime="0.00" timeLoss="0.35" rerouteNo="0" devices="tripinfo_A_5" vType="typeA" speedFactor="1.03" vaporized=""/>
    <tripinfo id="B_8" depart="44.00" departLane="E1_0" departPos="5.10" departSpeed="6.78" departDelay="0.00" arrival="89.00" arrivalLane="E2_0" arrivalPos="30.00" arrivalSpeed="9.42" duration="45.00" routeLength="524.90" waitingTime="0.00" waitingCount="0" stopTime="0.00" timeLoss="8.70" rerouteNo="0" devices="tripinfo_B_8" vType="typeB" speedFactor="1.05" vaporized=""/>
    <tripinfo id="A_6" depart="45.00" departLane="E1_1" departPos="5.10" departSpeed="7.05" departDelay="0.00" arrival="92.00" arrivalLane="E2_0" arrivalPos="30.00" arrivalSpeed="9.00" duration="47.00" routeLength="524.90" waitingTime="3.00" waitingCount="1" stopTime="0.00" timeLoss="13.32" rerouteNo="0" devices="tripinfo_A_6" vType="typeA" speedFactor="1.12" vaporized=""/>
    <tripinfo id="A_7" depart="47.00" departLane="E1_1" departPos="5.10" departSpeed="7.80" departDelay="0.00" arrival="94.00" arrivalLane="E2_0" arrivalPos="30.00" arrivalSpeed="10.50" duration="47.00" routeLength="524.90" waitingTime="1.00" waitingCount="1" stopTime="0.00" timeLoss="8.62" rerouteNo="0" devices="tripinfo_A_7" vType="typeA" speedFactor="0.99" vaporized=""/>
    <tripinfo id="A_8" depart="50.00" departLane="E1_1" departPos="5.10" departSpeed="3.41" departDelay="0.00" arrival="96.00" arrivalLane="E2_0" arrivalPos="30.00" arrivalSpeed="12.69" duration="46.00" routeLength="524.90" waitingTime="0.00" waitingCount="0" stopTime="0.00" timeLoss="4.71" rerouteNo="0" devices="tripinfo_A_8" vType="typeA" speedFactor="0.93" vaporized=""/>
    <tripinfo id="A_9" depart="62.00" departLane="E1_1" departPos="5.10" departSpeed="0.74" departDelay="0.00" arrival="109.00" arrivalLane="E2_0" arrivalPos="30.00" arrivalSpeed="12.20" duration="47.00" routeLength="524.90" waitingTime="0.00" waitingCount="0" stopTime="0.00" timeLoss="3.14" rerouteNo="0" devices="tripinfo_A_9" vType="typeA" speedFactor="0.88" vaporized=""/>
    <tripinfo id="A_10" depart="65.00" departLane="E1_1" departPos="5.10" departSpeed="4.73" departDelay="2.00" arrival="111.00" arrivalLane="E2_0" arrivalPos="30.00" arrivalSpeed="12.75" duration="46.00" routeLength="524.90" waitingTime="0.00" waitingCount="0" stopTime="0.00" timeLoss="5.65" rerouteNo="0" devices="tripinfo_A_10" vType="typeA" speedFactor="0.94" vaporized=""/>
    <tripinfo id="A_11" depart="67.00" departLane="E1_1" departPos="5.10" departSpeed="5.37" departDelay="0.00" arrival="115.00" arrivalLane="E2_0" arrivalPos="30.00" arrivalSpeed="12.29" duration="48.00" routeLength="524.90" waitingTime="0.00" waitingCount="0" stopTime="0.00" timeLoss="14.64" rerouteNo="0" devices="tripinfo_A_11" vType="typeA" speedFactor="1.16" vaporized=""/>
    <tripinfo id="A_12" depart="69.00" departLane="E1_1" departPos="5.10" departSpeed="6.34" departDelay="1.00" arrival="116.00" arrivalLane="E2_0" arrivalPos="30.00" arrivalSpeed="11.69" duration="47.00" routeLength="524.90" waitingTime="0.00" waitingCount="0" stopTime="0.00" timeLoss="9.79" rerouteNo="0" devices="tripinfo_A_12" vType="typeA" speedFactor="1.02" vaporized=""/>
    <tripinfo id="A_13" depart="80.00" departLane="E1_1" departPos="5.10" departSpeed="13.18" departDelay="0.00" arrival="119.00" arrivalLane="E2_0" arrivalPos="30.00" arrivalSpeed="14.03" duration="39.00" routeLength="524.90" waitingTime="0.00" waitingCount="0" stopTime="0.00" timeLoss="0.77" rerouteNo="0" devices="tripinfo_A_13" vType="typeA" speedFactor="1.01" vaporized=""/>
    <tripinfo id="B_9" depart="65.00" departLane="E1_0" departPos="5.10" departSpeed="0.60" departDelay="0.00" arrival="126.00" arrivalLane="E2_0" arrivalPos="30.00" arrivalSpeed="9.00" duration="61.00" routeLength="524.90" waitingTime="10.00" waitingCount="1" stopTime="0.00" timeLoss="20.60" rerouteNo="0" devices="tripinfo_B_9" vType="typeB" speedFactor="0.94" vaporized=""/>
    <tripinfo id="B_10" depart="82.00" departLane="E1_0" departPos="5.10" departSpeed="11.16" departDelay="0.00" arrival="128.00" arrivalLane="E2_0" arrivalPos="30.00" arrivalSpeed="10.50" duration="46.00" routeLength="524.90" waitingTime="0.00" waitingCount="0" stopTime="0.00" timeLoss="6.98" rerouteNo="0" devices="tripinfo_B_10" vType="typeB" speedFactor="0.98" vaporized=""/>
    <tripinfo id="A_14" depart="88.00" departLane="E1_1" departPos="5.10" departSpeed="10.97" departDelay="0.00" arrival="131.00" arrivalLane="E2_0" arrivalPos="30.00" arrivalSpeed="12.36" duration="43.00" routeLength="524.90" waitingTime="0.00" waitingCount="0" stopTime="0.00" timeLoss="0.04" rerouteNo="0" devices="tripinfo_A_14" vType="typeA" speedFactor="0.89" vaporized=""/>
    <tripinfo id="B_11" depart="91.00" departLane="E1_0" departPos="5.10" departSpeed="4.55" departDelay="0.00" arrival="138.00" arrivalLane="E2_0" arrivalPos="30.00" arrivalSpeed="11.47" duration="47.00" routeLength="524.90" waitingTime="0.00" waitingCount="0" stopTime="0.00" timeLoss="1.11" rerouteNo="0" devices="tripinfo_B_11" vType="typeB" speedFactor="0.83" vaporized=""/>
    <tripinfo id="B_12" depart="98.00" departLane="E1_0" departPos="5.10" departSpeed="6.60" departDelay="0.00" arrival="142.00" arrivalLane="E2_0" arrivalPos="30.00" arrivalSpeed="12.12" duration="44.00" routeLength="524.90" waitingTime="0.00" waitingCount="0" stopTime="0.00" timeLoss="0.65" rerouteNo="0" devices="tripinfo_B_12" vType="typeB" speedFactor="0.87" vaporized=""/>
    <tripinfo id="B_13" depart="103.00" departLane="E1_0" departPos="5.10" departSpeed="3.02" departDelay="0.00" arrival="147.00" arrivalLane="E2_0" arrivalPos="30.00" arrivalSpeed="12.74" duration="44.00" routeLength="524.90" waitingTime="0.00" waitingCount="0" stopTime="0.00" timeLoss="2.11" rerouteNo="0" devices="tripinfo_B_13" vType="typeB" speedFactor="0.92" vaporized=""/>
    <tripinfo id="A_15" depart="112.00" departLane="E1_1" departPos="5.10" departSpeed="0.43" departDelay="0.00" arrival="156.00" arrivalLane="E2_0" arrivalPos="30.00" arrivalSpeed="13.18" duration="44.00" routeLength="524.90" waitingTime="0.00" waitingCount="0" stopTime="0.00" timeLoss="3.64" rerouteNo="0" devices="tripinfo_A_15" vType="typeA" speedFactor="0.95" vaporized=""/>
    <tripinfo id="A_16" depart="115.00" departLane="E1_1" departPos="5.10" departSpeed="4.21" departDelay="0.00" arrival="159.00" arrivalLane="E2_0" arrivalPos="30.00" arrivalSpeed="11.03" duration="44.00" routeLength="524.90" waitingTime="0.00" waitingCount="0" stopTime="0.00" timeLoss="10.61" rerouteNo="0" devices="tripinfo_A_16" vType="typeA" speedFactor="1.13" vaporized=""/>
    <tripinfo id="A_17" depart="126.00" departLane="E1_1" departPos="5.10" departSpeed="9.89" departDelay="0.00" arrival="167.00" arrivalLane="E2_0" arrivalPos="30.00" arrivalSpeed="12.94" duration="41.00" routeLength="524.90" waitingTime="0.00" waitingCount="0" stopTime="0.00" timeLoss="0.12" rerouteNo="0" devices="tripinfo_A_17" vType="typeA" speedFactor="0.93" vaporized=""/>
    <tripinfo id="A_18" depart="128.00" departLane="E1_1" departPos="5.10" departSpeed="2.60" departDelay="0.00" arrival="170.00" arrivalLane="E2_0" arrivalPos="30.00" arrivalSpeed="11.96" duration="42.00" routeLength="524.90" waitingTime="0.00" waitingCount="0" stopTime="0.00" timeLoss="9.82" rerouteNo="0" devices="tripinfo_A_18" vType="typeA" speedFactor="1.18" vaporized=""/>
    <tripinfo id="B_14" depart="134.00" departLane="E1_0" departPos="5.10" departSpeed="15.34" departDelay="0.00" arrival="173.00" arrivalLane="E2_0" arrivalPos="30.00" arrivalSpeed="10.12" duration="39.00" routeLength="524.90" waitingTime="0.00" waitingCount="0" stopTime="0.00" timeLoss="6.02" rerouteNo="0" devices="tripinfo_B_14" vType="typeB" speedFactor="1.15" vaporized=""/>
    <tripinfo id="B_15" depart="143.00" departLane="E1_0" departPos="5.10" departSpeed="11.15" departDelay="0.00" arrival="176.00" arrivalLane="E2_0" arrivalPos="30.00" arrivalSpeed="16.28" duration="33.00" routeLength="524.90" waitingTime="0.00" waitingCount="0" stopTime="0.00" timeLoss="0.62" rerouteNo="0" devices="tripinfo_B_15" vType="typeB" speedFactor="1.17" vaporized=""/>
    <tripinfo id="A_19" depart="138.00" departLane="E1_1" departPos="5.10" departSpeed="0.42" departDelay="0.00" arrival="182.00" arrivalLane="E2_0" arrivalPos="30.00" arrivalSpeed="12.53" duration="44.00" routeLength="524.90" waitingTime="0.00" waitingCount="0" stopTime="0.00" timeLoss="6.22" rerouteNo="0" devices="tripinfo_A_19" vType="typeA" speedFactor="1.01" vaporized=""/>
    <tripinfo id="A_20" depart="145.00" departLane="E1_1" departPos="5.10" departSpeed="4.58" departDelay="0.00" arrival="186.00" arrivalLane="E2_0" arrivalPos="30.00" arrivalSpeed="13.82" duration="41.00" routeLength="524.90" waitingTime="0.00" waitingCount="0" stopTime="0.00" timeLoss="2.09" rerouteNo="0" devices="tripinfo_A_20" vType="typeA" speedFactor="0.99" vaporized=""/>
    <tripinfo id="B_16" depart="148.00" departLane="E1_0" departPos="5.10" departSpeed="1.83" departDelay="0.00" arrival="189.00" arrivalLane="E2_0" arrivalPos="30.00" arrivalSpeed="14.16" duration="41.00" routeLength="524.90" waitingTime="0.00" waitingCount="0" stopTime="0.00" timeLoss="3.34" rerouteNo="0" devices="tripinfo_B_16" vType="typeB" speedFactor="1.02" vaporized=""/>
    <tripinfo id="A_21" depart="149.00" departLane="E1_1" departPos="5.10" departSpeed="1.69" departDelay="0.00" arrival="192.00" arrivalLane="E2_0" arrivalPos="30.00" arrivalSpeed="13.52" duration="43.00" routeLength="524.90" waitingTime="0.00" waitingCount="0" stopTime="0.00" timeLoss="3.35" rerouteNo="0" devices="tripinfo_A_21" vType="typeA" speedFactor="0.97" vaporized=""/>
    <tripinfo id="A_22" depart="162.00" departLane="E1_1" departPos="5.10" departSpeed="6.74" departDelay="0.00" arrival="196.00" arrivalLane="E2_0" arrivalPos="30.00" arrivalSpeed="16.39" duration="34.00" routeLength="524.90" waitingTime="0.00" waitingCount="0" stopTime="0.00" timeLoss="1.61" rerouteNo="0" devices="tripinfo_A_22" vType="typeA" speedFactor="1.18" vaporized=""/>
    <tripinfo id="A_23" depart="171.00" departLane="E1_1" departPos="5.10" departSpeed="14.77" departDelay="0.00" arrival="206.00" arrivalLane="E2_0" arrivalPos="30.00" arrivalSpeed="15.31" duration="35.00" routeLength="524.90" waitingTime="0.00" waitingCount="0" stopTime="0.00" timeLoss="0.00" rerouteNo="0" devices="tripinfo_A_23" vType="typeA" speedFactor="1.10" vaporized=""/>
    <tripinfo id="A_24" depart="179.00" departLane="E1_1" departPos="5.10" departSpeed="3.30" departDelay="0.00" arrival="223.00" arrivalLane="E2_0" arrivalPos="30.00" arrivalSpeed="12.51" duration="44.00" routeLength="524.90" waitingTime="0.00" waitingCount="0" stopTime="0.00" timeLoss="1.90" rerouteNo="0" devices="tripinfo_A_24" vType="typeA" speedFactor="0.90" vaporized=""/>
    <tripinfo id="A_25" depart="184.00" departLane="E1_1" departPos="5.10" departSpeed="3.19" departDelay="0.00" arrival="226.00" arrivalLane="E2_0" arrivalPos="30.00" arrivalSpeed="12.45" duration="42.00" routeLength="524.90" waitingTime="0.00" waitingCount="0" stopTime="0.00" timeLoss="5.15" rerouteNo="0" devices="tripinfo_A_25" vType="typeA" speedFactor="1.03" vaporized=""/>
    <tripinfo id="B_17" depart="187.00" departLane="E1_0" departPos="5.10" departSpeed="2.23" departDelay="0.00" arrival="231.00" arrivalLane="E2_0" arrivalPos="30.00" arrivalSpeed="13.25" duration="44.00" routeLength="524.90" waitingTime="0.00" waitingCount="0" stopTime="0.00" timeLoss="4.27" rerouteNo="0" devices="tripinfo_B_17" vType="typeB" speedFactor="0.96" vaporized=""/>
    <tripinfo id="A_26" depart="197.00" departLane="E1_1" departPos="5.10" departSpeed="8.67" departDelay="0.00" arrival="236.00" arrivalLane="E2_0" arrivalPos="30.00" arrivalSpeed="11.13" duration="39.00" routeLength="524.90" waitingTime="0.00" waitingCount="0" stopTime="0.00" timeLoss="4.37" rerouteNo="0" devices="tripinfo_A_26" vType="typeA" speedFactor="1.09" vaporized=""/>
    <tripinfo id="A_27" depart="203.00" departLane="E1_1" departPos="5.10" departSpeed="3.48" departDelay="0.00" arrival="242.00" arrivalLane="E2_0" arrivalPos="30.00" arrivalSpeed="14.41" duration="39.00" routeLength="524.90" waitingTime="0.00" waitingCount="0" stopTime="0.00" timeLoss="2.40" rerouteNo="0" devices="tripinfo_A_27" vType="typeA" speedFactor="1.04" vaporized=""/>
    <tripinfo id="B_18" depart="207.00" departLane="E1_0" departPos="5.10" departSpeed="11.76" departDelay="0.00" arrival="245.00" arrivalLane="E2_0" arrivalPos="30.00" arrivalSpeed="14.49" duration="38.00" routeLength="524.90" waitingTime="0.00" waitingCount="0" stopTime="0.00" timeLoss="1.51" rerouteNo="0" devices="tripinfo_B_18" vType="typeB" speedFactor="1.04" vaporized=""/>
    <tripinfo id="B_19" depart="209.00" departLane="E1_0" departPos="5.10" departSpeed="1.35" departDelay="0.00" arrival="249.00" arrivalLane="E2_0" arrivalPos="30.00" arrivalSpeed="15.11" duration="40.00" routeLength="524.90" waitingTime="0.00" waitingCount="0" stopTime="0.00" timeLoss="4.28" rerouteNo="0" devices="tripinfo_B_19" vType="typeB" speedFactor="1.09" vaporized=""/>
    <tripinfo id="B_20" depart="213.00" departLane="E1_0" departPos="5.10" departSpeed="8.58" departDelay="0.00" arrival="253.00" arrivalLane="E2_0" arrivalPos="30.00" arrivalSpeed="13.85" duration="40.00" routeLength="524.90" waitingTime="0.00" waitingCount="0" stopTime="0.00" timeLoss="1.30" rerouteNo="0" devices="tripinfo_B_20" vType="typeB" speedFactor="1.00" vaporized=""/>
    <tripinfo id="A_28" depart="215.00" departLane="E1_1" departPos="5.10" departSpeed="8.95" departDelay="0.00" arrival="258.00" arrivalLane="E2_0" arrivalPos="30.00" arrivalSpeed="12.51" duration="43.00" routeLength="524.90" waitingTime="0.00" waitingCount="0" stopTime="0.00" timeLoss="0.93" rerouteNo="0" devices="tripinfo_A_28" vType="typeA" speedFactor="0.90" vaporized=""/>
    <tripinfo id="B_21" depart="217.00" departLane="E1_0" departPos="5.10" departSpeed="7.26" departDelay="0.00" arrival="263.00" arrivalLane="E2_0" arrivalPos="30.00" arrivalSpeed="11.13" duration="46.00" routeLength="524.90" waitingTime="0.00" waitingCount="0" stopTime="0.00" timeLoss="2.89" rerouteNo="0" devices="tripinfo_B_21" vType="typeB" speedFactor="0.88" vaporized=""/>
    <tripinfo id="A_29" depart="230.00" departLane="E1_1" departPos="5.10" departSpeed="8.17" departDelay="0.00" arrival="275.00" arrivalLane="E2_0" arrivalPos="30.00" arrivalSpeed="11.81" duration="45.00" routeLength="524.90" waitingTime="0.00" waitingCount="0" stopTime="0.00" timeLoss="0.24" rerouteNo="0" devices="tripinfo_A_29" vType="typeA" speedFactor="0.85" vaporized=""/>
    <tripinfo id="B_22" depart="234.00" departLane="E1_0" departPos="5.10" departSpeed="11.10" departDelay="0.00" arrival="280.00" arrivalLane="E2_0" arrivalPos="30.00" arrivalSpeed="11.87" duration="46.00" routeLength="524.90" waitingTime="0.00" waitingCount="0" stopTime="0.00" timeLoss="1.64" rerouteNo="0" devices="tripinfo_B_22" vType="typeB" speedFactor="0.85" vaporized=""/>
    <tripinfo id="B_23" depart="240.00" departLane="E1_0" departPos="5.10" departSpeed="15.59" departDelay="0.00" arrival="282.00" arrivalLane="E2_0" arrivalPos="30.00" arrivalSpeed="12.50" duration="42.00" routeLength="524.90" waitingTime="0.00" waitingCount="0" stopTime="0.00" timeLoss="9.52" rerouteNo="0" devices="tripinfo_B_23" vType="typeB" speedFactor="1.17" vaporized=""/>
    <tripinfo id="B_24" depart="246.00" departLane="E1_0" departPos="5.10" departSpeed="4.35" departDelay="0.00" arrival="286.00" arrivalLane="E2_0" arrivalPos="30.00" arrivalSpeed="14.12" duration="40.00" routeLength="524.90" waitingTime="0.00" waitingCount="0" stopTime="0.00" timeLoss="2.14" rerouteNo="0" devices="tripinfo_B_24" vType="typeB" speedFactor="1.02" vaporized=""/>
    <tripinfo id="B_25" depart="250.00" departLane="E1_0" departPos="5.10" departSpeed="7.50" departDelay="0.00" arrival="289.00" arrivalLane="E2_0" arrivalPos="30.00" arrivalSpeed="11.22" duration="39.00" routeLength="524.90" waitingTime="0.00" waitingCount="0" stopTime="0.00" timeLoss="4.48" rerouteNo="0" devices="tripinfo_B_25" vType="typeB" speedFactor="1.10" vaporized=""/>
    <tripinfo id="A_30" depart="252.00" departLane="E1_1" departPos="5.10" departSpeed="8.08" departDelay="0.00" arrival="292.00" arrivalLane="E2_0" arrivalPos="30.00" arrivalSpeed="13.93" duration="40.00" routeLength="524.90" waitingTime="0.00" waitingCount="0" stopTime="0.00" timeLoss="1.42" rerouteNo="0" devices="tripinfo_A_30" vType="typeA" speedFactor="1.00" vaporized=""/>
    <tripinfo id="A_31" depart="254.00" departLane="E1_1" departPos="5.10" departSpeed="2.33" departDelay="0.00" arrival="295.00" arrivalLane="E2_0" arrivalPos="30.00" arrivalSpeed="13.83" duration="41.00" routeLength="524.90" waitingTime="0.00" waitingCount="0" stopTime="0.00" timeLoss="2.85" rerouteNo="0" devices="tripinfo_A_31" vType="typeA" speedFactor="1.00" vaporized=""/>
    <tripinfo id="A_32" depart="259.00" departLane="E1_1" departPos="5.10" departSpeed="2.91" departDelay="0.00" arrival="298.00" arrivalLane="E2_0" arrivalPos="30.00" arrivalSpeed="13.46" duration="39.00" routeLength="524.90" waitingTime="0.00" waitingCount="0" stopTime="0.00" timeLoss="5.71" rerouteNo="0" devices="tripinfo_A_32" vType="typeA" speedFactor="1.14" vaporized=""/>
    <tripinfo id="B_26" depart="258.00" departLane="E1_0" departPos="5.10" departSpeed="11.92" departDelay="0.00" arrival="304.00" arrivalLane="E2_0" arrivalPos="30.00" arrivalSpeed="11.85" duration="46.00" routeLength="524.90" waitingTime="0.00" waitingCount="0" stopTime="0.00" timeLoss="3.12" rerouteNo="0" devices="tripinfo_B_26" vType="typeB" speedFactor="0.90" vaporized=""/>
    <tripinfo id="A_33" depart="264.00" departLane="E1_1" departPos="5.10" departSpeed="9.12" departDelay="0.00" arrival="306.00" arrivalLane="E2_0" arrivalPos="30.00" arrivalSpeed="11.96" duration="42.00" routeLength="524.90" waitingTime="0.00" waitingCount="0" stopTime="0.00" timeLoss="4.32" rerouteNo="0" devices="tripinfo_A_33" vType="typeA" speedFactor="1.02" vaporized=""/>
    <tripinfo id="B_27" depart="271.00" departLane="E1_0" departPos="5.10" departSpeed="0.42" departDelay="0.00" arrival="311.00" arrivalLane="E2_0" arrivalPos="30.00" arrivalSpeed="15.04" duration="40.00" routeLength="524.90" waitingTime="0.00" waitingCount="0" stopTime="0.00" timeLoss="4.26" rerouteNo="0" devices="tripinfo_B_27" vType="typeB" speedFactor="1.08" vaporized=""/>
    <tripinfo id="B_28" depart="274.00" departLane="E1_0" departPos="5.10" departSpeed="4.20" departDelay="0.00" arrival="314.00" arrivalLane="E2_0" arrivalPos="30.00" arrivalSpeed="12.05" duration="40.00" routeLength="524.90" waitingTime="0.00" waitingCount="0" stopTime="0.00" timeLoss="5.92" rerouteNo="0" devices="tripinfo_B_28" vType="typeB" speedFactor="1.12" vaporized=""/>
    <tripinfo id="A_34" depart="271.00" departLane="E1_1" departPos="5.10" departSpeed="2.04" departDelay="0.00" arrival="317.00" arrivalLane="E2_0" arrivalPos="30.00" arrivalSpeed="12.22" duration="46.00" routeLength="524.90" waitingTime="0.00" waitingCount="0" stopTime="0.00" timeLoss="6.16" rerouteNo="0" devices="tripinfo_A_34" vType="typeA" speedFactor="0.97" vaporized=""/>
    <tripinfo id="A_35" depart="276.00" departLane="E1_1" departPos="5.10" departSpeed="7.71" departDelay="0.00" arrival="318.00" arrivalLane="E2_0" arrivalPos="30.00" arrivalSpeed="11.75" duration="42.00" routeLength="524.90" waitingTime="0.00" waitingCount="0" stopTime="0.00" timeLoss="4.69" rerouteNo="0" devices="tripinfo_A_35" vType="typeA" speedFactor="1.02" vaporized=""/>
    <tripinfo id="A_36" depart="283.00" departLane="E1_1" departPos="5.10" departSpeed="12.72" departDelay="0.00" arrival="322.00" arrivalLane="E2_0" arrivalPos="30.00" arrivalSpeed="13.71" duration="39.00" routeLength="524.90" waitingTime="0.00" waitingCount="0" stopTime="0.00" timeLoss="0.00" rerouteNo="0" devices="tripinfo_A_36" vType="typeA" speedFactor="0.99" vaporized=""/>
    <tripinfo id="B_29" depart="291.00" departLane="E1_0" departPos="5.10" departSpeed="0.87" departDelay="0.00" arrival="335.00" arrivalLane="E2_0" arrivalPos="30.00" arrivalSpeed="13.02" duration="44.00" routeLength="524.90" waitingTime="0.00" waitingCount="0" stopTime="0.00" timeLoss="3.32" rerouteNo="0" devices="tripinfo_B_29" vType="typeB" speedFactor="0.94" vaporized=""/>
    <tripinfo id="B_30" depart="294.00" departLane="E1_0" departPos="5.10" departSpeed="2.19" departDelay="0.00" arrival="340.00" arrivalLane="E2_0" arrivalPos="30.00" arrivalSpeed="12.26" duration="46.00" routeLength="524.90" waitingTime="0.00" waitingCount="0" stopTime="0.00" timeLoss="2.36" rerouteNo="0" devices="tripinfo_B_30" vType="typeB" speedFactor="0.88" vaporized=""/>
    <tripinfo id="A_37" depart="299.00" departLane="E1_1" departPos="5.10" departSpeed="12.50" departDelay="0.00" arrival="342.00" arrivalLane="E2_0" arrivalPos="30.00" arrivalSpeed="12.60" duration="43.00" routeLength="524.90" waitingTime="0.00" waitingCount="0" stopTime="0.00" timeLoss="1.12" rerouteNo="0" devices="tripinfo_A_37" vType="typeA" speedFactor="0.91" vaporized=""/>
</tripinfos>
