<?xml version="1.0" encoding="UTF-8"?>

<!-- generated on Sat Dec 26 21:38:38 2020 by Eclipse SUMO GUI Version 1.7.0
<configuration xmlns:xsi="http://www.w3.org/2001/XMLSchema-instance" xsi:noNamespaceSchemaLocation="http://sumo.dlr.de/xsd/sumoConfiguration.xsd">

    <input>
        <net-file value="laneMerging.net.xml"/>
        <route-files value="laneMerging.rou.xml"/>
        <additional-files value="laneMerging.add.xml"/>
    </input>

    <output>
        <tripinfo-output value="tripinfo.xml"/>
    </output>

    <traci_server>
        <remote-port value="50416"/>
    </traci_server>

    <gui_only>
        <gui-settings-file value="laneMerging.view.xml"/>
    </gui_only>

</configuration>
-->

<tripinfos xmlns:xsi="http://www.w3.org/2001/XMLSchema-instance" xsi:noNamespaceSchemaLocation="http://sumo.dlr.de/xsd/tripinfo_file.xsd">
    <tripinfo id="B_1" depart="0.00" departLane="E1_0" departPos="5.10" departSpeed="13.12" departDelay="0.00" arrival="24.00" arrivalLane="E2_0" arrivalPos="50.00" arrivalSpeed="14.72" duration="24.00" routeLength="344.90" waitingTime="0.00" waitingCount="0" stopTime="0.00" timeLoss="0.00" rerouteNo="0" devices="tripinfo_B_1" vType="typeB" speedFactor="1.06" vaporized=""/>
    <tripinfo id="B_2" depart="4.00" departLane="E1_0" departPos="5.10" departSpeed="9.29" departDelay="0.00" arrival="31.00" arrivalLane="E2_0" arrivalPos="50.00" arrivalSpeed="13.03" duration="27.00" routeLength="344.90" waitingTime="0.00" waitingCount="0" stopTime="0.00" timeLoss="0.00" rerouteNo="0" devices="tripinfo_B_2" vType="typeB" speedFactor="0.94" vaporized=""/>
    <tripinfo id="A_1" depart="6.00" departLane="E1_1" departPos="5.10" departSpeed="0.64" departDelay="0.00" arrival="32.00" arrivalLane="E2_0" arrivalPos="50.00" arrivalSpeed="14.03" duration="26.00" routeLength="344.90" waitingTime="0.00" waitingCount="0" stopTime="0.00" timeLoss="1.36" rerouteNo="0" devices="tripinfo_A_1" vType="typeA" speedFactor="1.01" vaporized=""/>
    <tripinfo id="B_3" depart="9.00" departLane="E1_0" departPos="5.10" departSpeed="7.39" departDelay="0.00" arrival="34.00" arrivalLane="E2_0" arrivalPos="50.00" arrivalSpeed="15.04" duration="25.00" routeLength="344.90" waitingTime="0.00" waitingCount="0" stopTime="0.00" timeLoss="1.41" rerouteNo="0" devices="tripinfo_B_3" vType="typeB" speedFactor="1.08" vaporized=""/>
    <tripinfo id="B_4" depart="20.00" departLane="E1_0" departPos="5.10" departSpeed="8.44" departDelay="0.00" arrival="45.00" arrivalLane="E2_0" arrivalPos="50.00" arrivalSpeed="14.31" duration="25.00" routeLength="344.90" waitingTime="0.00" waitingCount="0" stopTime="0.00" timeLoss="0.00" rerouteNo="0" devices="tripinfo_B_4" vType="typeB" speedFactor="1.03" vaporized=""/>
    <tripinfo id="B_5" depart="33.00" departLane="E1_0" departPos="5.10" departSpeed="0.50" departDelay="0.00" arrival="63.00" arrivalLane="E2_0" arrivalPos="50.00" arrivalSpeed="11.54" duration="30.00" routeLength="344.90" waitingTime="0.00" waitingCount="0" stopTime="0.00" timeLoss="0.09" rerouteNo="0" devices="tripinfo_B_5" vType="typeB" speedFactor="0.83" vaporized=""/>
    <tripinfo id="B_6" depart="44.00" departLane="E1_0" departPos="5.10" departSpeed="10.80" departDelay="0.00" arrival="68.00" arrivalLane="E2_0" arrivalPos="50.00" arrivalSpeed="14.53" duration="24.00" routeLength="344.90" waitingTime="0.00" waitingCount="0" stopTime="0.00" timeLoss="0.00" rerouteNo="0" devices="tripinfo_B_6" vType="typeB" speedFactor="1.05" vaporized=""/>
    <tripinfo id="A_2" depart="47.00" departLane="E1_1" departPos="5.10" departSpeed="3.05" departDelay="0.00" arrival="76.00" arrivalLane="E2_0" arrivalPos="50.00" arrivalSpeed="12.31" duration="29.00" routeLength="344.90" waitingTime="0.00" waitingCount="0" stopTime="0.00" timeLoss="0.00" rerouteNo="0" devices="tripinfo_A_2" vType="typeA" speedFactor="0.89" vaporized=""/>
    <tripinfo id="A_3" depart="50.00" departLane="E1_1" departPos="5.10" departSpeed="7.10" departDelay="0.00" arrival="77.00" arrivalLane="E2_0" arrivalPos="50.00" arrivalSpeed="13.03" duration="27.00" routeLength="344.90" waitingTime="0.00" waitingCount="0" stopTime="0.00" timeLoss="0.13" rerouteNo="0" devices="tripinfo_A_3" vType="typeA" speedFactor="0.94" vaporized=""/>
    <tripinfo id="A_4" depart="62.00" departLane="E1_1" departPos="5.10" departSpeed="8.87" departDelay="0.00" arrival="91.00" arrivalLane="E2_0" arrivalPos="50.00" arrivalSpeed="11.90" duration="29.00" routeLength="344.90" waitingTime="0.00" waitingCount="0" stopTime="0.00" timeLoss="0.00" rerouteNo="0" devices="tripinfo_A_4" vType="typeA" speedFactor="0.86" vaporized=""/>
    <tripinfo id="A_5" depart="63.00" departLane="E1_1" departPos="5.10" departSpeed="0.09" departDelay="0.00" arrival="93.00" arrivalLane="E2_0" arrivalPos="50.00" arrivalSpeed="15.15" duration="30.00" routeLength="344.90" waitingTime="0.00" waitingCount="0" stopTime="0.00" timeLoss="6.50" rerouteNo="0" devices="tripinfo_A_5" vType="typeA" speedFactor="1.09" vaporized=""/>
    <tripinfo id="A_6" depart="112.00" departLane="E1_1" departPos="5.10" departSpeed="9.59" departDelay="0.00" arrival="137.00" arrivalLane="E2_0" arrivalPos="50.00" arrivalSpeed="14.26" duration="25.00" routeLength="344.90" waitingTime="0.00" waitingCount="0" stopTime="0.00" timeLoss="0.00" rerouteNo="0" devices="tripinfo_A_6" vType="typeA" speedFactor="1.03" vaporized=""/>
    <tripinfo id="B_7" depart="134.00" departLane="E1_0" departPos="5.10" departSpeed="6.78" departDelay="0.00" arrival="158.00" arrivalLane="E2_0" arrivalPos="50.00" arrivalSpeed="14.54" duration="24.00" routeLength="344.90" waitingTime="0.00" waitingCount="0" stopTime="0.00" timeLoss="0.00" rerouteNo="0" devices="tripinfo_B_7" vType="typeB" speedFactor="1.05" vaporized=""/>
    <tripinfo id="A_7" depart="145.00" departLane="E1_1" departPos="5.10" departSpeed="7.05" departDelay="0.00" arrival="168.00" arrivalLane="E2_0" arrivalPos="50.00" arrivalSpeed="15.60" duration="23.00" routeLength="344.90" waitingTime="0.00" waitingCount="0" stopTime="0.00" timeLoss="0.00" rerouteNo="0" devices="tripinfo_A_7" vType="typeA" speedFactor="1.12" vaporized=""/>
    <tripinfo id="B_8" depart="148.00" departLane="E1_0" departPos="5.10" departSpeed="7.80" departDelay="0.00" arrival="174.00" arrivalLane="E2_0" arrivalPos="50.00" arrivalSpeed="13.77" duration="26.00" routeLength="344.90" waitingTime="0.00" waitingCount="0" stopTime="0.00" timeLoss="0.00" rerouteNo="0" devices="tripinfo_B_8" vType="typeB" speedFactor="0.99" vaporized=""/>
    <tripinfo id="A_8" depart="162.00" departLane="E1_1" departPos="5.10" departSpeed="3.41" departDelay="0.00" arrival="189.00" arrivalLane="E2_0" arrivalPos="50.00" arrivalSpeed="12.87" duration="27.00" routeLength="344.90" waitingTime="0.00" waitingCount="0" stopTime="0.00" timeLoss="0.00" rerouteNo="0" devices="tripinfo_A_8" vType="typeA" speedFactor="0.93" vaporized=""/>
    <tripinfo id="A_9" depart="171.00" departLane="E1_1" departPos="5.10" departSpeed="0.74" departDelay="0.00" arrival="200.00" arrivalLane="E2_0" arrivalPos="50.00" arrivalSpeed="12.20" duration="29.00" routeLength="344.90" waitingTime="0.00" waitingCount="0" stopTime="0.00" timeLoss="0.12" rerouteNo="0" devices="tripinfo_A_9" vType="typeA" speedFactor="0.88" vaporized=""/>
    <tripinfo id="A_10" depart="184.00" departLane="E1_1" departPos="5.10" departSpeed="11.45" departDelay="0.00" arrival="211.00" arrivalLane="E2_0" arrivalPos="50.00" arrivalSpeed="13.08" duration="27.00" routeLength="344.90" waitingTime="0.00" waitingCount="0" stopTime="0.00" timeLoss="0.00" rerouteNo="0" devices="tripinfo_A_10" vType="typeA" speedFactor="0.94" vaporized=""/>
    <tripinfo id="A_11" depart="197.00" departLane="E1_1" departPos="5.10" departSpeed="4.19" departDelay="0.00" arrival="224.00" arrivalLane="E2_0" arrivalPos="50.00" arrivalSpeed="13.00" duration="27.00" routeLength="344.90" waitingTime="0.00" waitingCount="0" stopTime="0.00" timeLoss="0.00" rerouteNo="0" devices="tripinfo_A_11" vType="typeA" speedFactor="0.94" vaporized=""/>
    <tripinfo id="B_9" depart="207.00" departLane="E1_0" departPos="5.10" departSpeed="11.00" departDelay="0.00" arrival="229.00" arrivalLane="E2_0" arrivalPos="50.00" arrivalSpeed="16.09" duration="22.00" routeLength="344.90" waitingTime="0.00" waitingCount="0" stopTime="0.00" timeLoss="0.00" rerouteNo="0" devices="tripinfo_B_9" vType="typeB" speedFactor="1.16" vaporized=""/>
    <tripinfo id="B_10" depart="213.00" departLane="E1_0" departPos="5.10" departSpeed="0.65" departDelay="0.00" arrival="238.00" arrivalLane="E2_0" arrivalPos="50.00" arrivalSpeed="14.14" duration="25.00" routeLength="344.90" waitingTime="0.00" waitingCount="0" stopTime="0.00" timeLoss="0.25" rerouteNo="0" devices="tripinfo_B_10" vType="typeB" speedFactor="1.02" vaporized=""/>
    <tripinfo id="B_11" depart="240.00" departLane="E1_0" departPos="5.10" departSpeed="7.20" departDelay="0.00" arrival="265.00" arrivalLane="E2_0" arrivalPos="50.00" arrivalSpeed="14.03" duration="25.00" routeLength="344.90" waitingTime="0.00" waitingCount="0" stopTime="0.00" timeLoss="0.00" rerouteNo="0" devices="tripinfo_B_11" vType="typeB" speedFactor="1.01" vaporized=""/>
    <tripinfo id="B_12" depart="246.00" departLane="E1_0" departPos="5.10" departSpeed="4.16" departDelay="0.00" arrival="272.00" arrivalLane="E2_0" arrivalPos="50.00" arrivalSpeed="13.54" duration="26.00" routeLength="344.90" waitingTime="0.00" waitingCount="0" stopTime="0.00" timeLoss="0.00" rerouteNo="0" devices="tripinfo_B_12" vType="typeB" speedFactor="0.98" vaporized=""/>
    <tripinfo id="B_13" depart="250.00" departLane="E1_0" departPos="5.10" departSpeed="7.83" departDelay="0.00" arrival="278.00" arrivalLane="E2_0" arrivalPos="50.00" arrivalSpeed="12.36" duration="28.00" routeLength="344.90" waitingTime="0.00" waitingCount="0" stopTime="0.00" timeLoss="0.00" rerouteNo="0" devices="tripinfo_B_13" vType="typeB" speedFactor="0.89" vaporized=""/>
    <tripinfo id="A_12" depart="252.00" departLane="E1_1" departPos="5.10" departSpeed="10.77" departDelay="0.00" arrival="283.00" arrivalLane="E2_0" arrivalPos="50.00" arrivalSpeed="11.47" duration="31.00" routeLength="344.90" waitingTime="0.00" waitingCount="0" stopTime="0.00" timeLoss="0.00" rerouteNo="0" devices="tripinfo_A_12" vType="typeA" speedFactor="0.83" vaporized=""/>
    <tripinfo id="A_13" depart="254.00" departLane="E1_1" departPos="5.10" departSpeed="9.99" departDelay="0.00" arrival="284.00" arrivalLane="E2_0" arrivalPos="50.00" arrivalSpeed="12.12" duration="30.00" routeLength="344.90" waitingTime="0.00" waitingCount="0" stopTime="0.00" timeLoss="1.23" rerouteNo="0" devices="tripinfo_A_13" vType="typeA" speedFactor="0.87" vaporized=""/>
    <tripinfo id="A_14" depart="259.00" departLane="E1_1" departPos="5.10" departSpeed="11.31" departDelay="0.00" arrival="287.00" arrivalLane="E2_0" arrivalPos="50.00" arrivalSpeed="12.74" duration="28.00" routeLength="344.90" waitingTime="0.00" waitingCount="0" stopTime="0.00" timeLoss="0.00" rerouteNo="0" devices="tripinfo_A_14" vType="typeA" speedFactor="0.92" vaporized=""/>
    <tripinfo id="A_15" depart="264.00" departLane="E1_1" departPos="5.10" departSpeed="5.23" departDelay="0.00" arrival="291.00" arrivalLane="E2_0" arrivalPos="50.00" arrivalSpeed="13.18" duration="27.00" routeLength="344.90" waitingTime="0.00" waitingCount="0" stopTime="0.00" timeLoss="0.00" rerouteNo="0" devices="tripinfo_A_15" vType="typeA" speedFactor="0.95" vaporized=""/>
    <tripinfo id="B_14" depart="271.00" departLane="E1_0" departPos="5.10" departSpeed="8.56" departDelay="0.00" arrival="293.00" arrivalLane="E2_0" arrivalPos="50.00" arrivalSpeed="15.72" duration="22.00" routeLength="344.90" waitingTime="0.00" waitingCount="0" stopTime="0.00" timeLoss="0.00" rerouteNo="0" devices="tripinfo_B_14" vType="typeB" speedFactor="1.13" vaporized=""/>
    <tripinfo id="B_15" depart="294.00" departLane="E1_0" departPos="5.10" departSpeed="3.06" departDelay="0.00" arrival="321.00" arrivalLane="E2_0" arrivalPos="50.00" arrivalSpeed="12.94" duration="27.00" routeLength="344.90" waitingTime="0.00" waitingCount="0" stopTime="0.00" timeLoss="0.00" rerouteNo="0" devices="tripinfo_B_15" vType="typeB" speedFactor="0.93" vaporized=""/>
    <tripinfo id="A_16" depart="299.00" departLane="E1_1" departPos="5.10" departSpeed="0.53" departDelay="0.00" arrival="322.00" arrivalLane="E2_0" arrivalPos="50.00" arrivalSpeed="16.37" duration="23.00" routeLength="344.90" waitingTime="0.00" waitingCount="0" stopTime="0.00" timeLoss="1.87" rerouteNo="0" devices="tripinfo_A_16" vType="typeA" speedFactor="1.18" vaporized=""/>
    <tripinfo id="B_16" depart="318.00" departLane="E1_0" departPos="5.10" departSpeed="4.84" departDelay="0.00" arrival="340.00" arrivalLane="E2_0" arrivalPos="50.00" arrivalSpeed="16.04" duration="22.00" routeLength="344.90" waitingTime="0.00" waitingCount="0" stopTime="0.00" timeLoss="0.08" rerouteNo="0" devices="tripinfo_B_16" vType="typeB" speedFactor="1.15" vaporized=""/>
    <tripinfo id="A_17" depart="329.00" departLane="E1_1" departPos="5.10" departSpeed="10.67" departDelay="0.00" arrival="354.00" arrivalLane="E2_0" arrivalPos="50.00" arrivalSpeed="13.96" duration="25.00" routeLength="344.90" waitingTime="0.00" waitingCount="0" stopTime="0.00" timeLoss="0.00" rerouteNo="0" devices="tripinfo_A_17" vType="typeA" speedFactor="1.01" vaporized=""/>
    <tripinfo id="A_18" depart="342.00" departLane="E1_1" departPos="5.10" departSpeed="2.59" departDelay="0.00" arrival="364.00" arrivalLane="E2_0" arrivalPos="50.00" arrivalSpeed="16.28" duration="22.00" routeLength="344.90" waitingTime="0.00" waitingCount="0" stopTime="0.00" timeLoss="0.23" rerouteNo="0" devices="tripinfo_A_18" vType="typeA" speedFactor="1.17" vaporized=""/>
    <tripinfo id="A_19" depart="358.00" departLane="E1_1" departPos="5.10" departSpeed="13.22" departDelay="0.00" arrival="383.00" arrivalLane="E2_0" arrivalPos="50.00" arrivalSpeed="13.82" duration="25.00" routeLength="344.90" waitingTime="0.00" waitingCount="0" stopTime="0.00" timeLoss="0.00" rerouteNo="0" devices="tripinfo_A_19" vType="typeA" speedFactor="0.99" vaporized=""/>
    <tripinfo id="A_20" depart="364.00" departLane="E1_1" departPos="5.10" departSpeed="0.42" departDelay="0.00" arrival="389.00" arrivalLane="E2_0" arrivalPos="50.00" arrivalSpeed="14.16" duration="25.00" routeLength="344.90" waitingTime="0.00" waitingCount="0" stopTime="0.00" timeLoss="0.26" rerouteNo="0" devices="tripinfo_A_20" vType="typeA" speedFactor="1.02" vaporized=""/>
    <tripinfo id="B_17" depart="408.00" departLane="E1_0" departPos="5.10" departSpeed="9.26" departDelay="0.00" arrival="434.00" arrivalLane="E2_0" arrivalPos="50.00" arrivalSpeed="13.52" duration="26.00" routeLength="344.90" waitingTime="0.00" waitingCount="0" stopTime="0.00" timeLoss="0.00" rerouteNo="0" devices="tripinfo_B_17" vType="typeB" speedFactor="0.97" vaporized=""/>
    <tripinfo id="A_21" depart="413.00" departLane="E1_1" departPos="5.10" departSpeed="5.43" departDelay="0.00" arrival="435.00" arrivalLane="E2_0" arrivalPos="50.00" arrivalSpeed="16.39" duration="22.00" routeLength="344.90" waitingTime="0.00" waitingCount="0" stopTime="0.00" timeLoss="0.83" rerouteNo="0" devices="tripinfo_A_21" vType="typeA" speedFactor="1.18" vaporized=""/>
    <tripinfo id="B_18" depart="425.00" departLane="E1_0" departPos="5.10" departSpeed="1.98" departDelay="0.00" arrival="448.00" arrivalLane="E2_0" arrivalPos="50.00" arrivalSpeed="15.31" duration="23.00" routeLength="344.90" waitingTime="0.00" waitingCount="0" stopTime="0.00" timeLoss="0.22" rerouteNo="0" devices="tripinfo_B_18" vType="typeB" speedFactor="1.10" vaporized=""/>
    <tripinfo id="A_22" depart="432.00" departLane="E1_1" departPos="5.10" departSpeed="1.57" departDelay="0.00" arrival="460.00" arrivalLane="E2_0" arrivalPos="50.00" arrivalSpeed="12.51" duration="28.00" routeLength="344.90" waitingTime="0.00" waitingCount="0" stopTime="0.00" timeLoss="0.08" rerouteNo="0" devices="tripinfo_A_22" vType="typeA" speedFactor="0.90" vaporized=""/>
    <tripinfo id="A_23" depart="441.00" departLane="E1_1" departPos="5.10" departSpeed="5.89" departDelay="0.00" arrival="466.00" arrivalLane="E2_0" arrivalPos="50.00" arrivalSpeed="14.31" duration="25.00" routeLength="344.90" waitingTime="0.00" waitingCount="0" stopTime="0.00" timeLoss="0.00" rerouteNo="0" devices="tripinfo_A_23" vType="typeA" speedFactor="1.03" vaporized=""/>
    <tripinfo id="A_24" depart="454.00" departLane="E1_1" departPos="5.10" departSpeed="12.82" departDelay="0.00" arrival="480.00" arrivalLane="E2_0" arrivalPos="50.00" arrivalSpeed="13.29" duration="26.00" routeLength="344.90" waitingTime="0.00" waitingCount="0" stopTime="0.00" timeLoss="0.00" rerouteNo="0" devices="tripinfo_A_24" vType="typeA" speedFactor="0.96" vaporized=""/>
    <tripinfo id="A_25" depart="478.00" departLane="E1_1" departPos="5.10" departSpeed="4.01" departDelay="0.00" arrival="501.00" arrivalLane="E2_0" arrivalPos="50.00" arrivalSpeed="15.17" duration="23.00" routeLength="344.90" waitingTime="0.00" waitingCount="0" stopTime="0.00" timeLoss="0.08" rerouteNo="0" devices="tripinfo_A_25" vType="typeA" speedFactor="1.09" vaporized=""/>
    <tripinfo id="A_26" depart="483.00" departLane="E1_1" departPos="5.10" departSpeed="3.22" departDelay="0.00" arrival="508.00" arrivalLane="E2_0" arrivalPos="50.00" arrivalSpeed="14.41" duration="25.00" routeLength="344.90" waitingTime="0.00" waitingCount="0" stopTime="0.00" timeLoss="0.08" rerouteNo="0" devices="tripinfo_A_26" vType="typeA" speedFactor="1.04" vaporized=""/>
    <tripinfo id="B_19" depart="497.00" departLane="E1_0" departPos="5.10" departSpeed="2.43" departDelay="0.00" arrival="521.00" arrivalLane="E2_0" arrivalPos="50.00" arrivalSpeed="14.49" duration="24.00" routeLength="344.90" waitingTime="0.00" waitingCount="0" stopTime="0.00" timeLoss="0.14" rerouteNo="0" devices="tripinfo_B_19" vType="typeB" speedFactor="1.04" vaporized=""/>
    <tripinfo id="B_20" depart="506.00" departLane="E1_0" departPos="5.10" departSpeed="8.64" departDelay="0.00" arrival="529.00" arrivalLane="E2_0" arrivalPos="50.00" arrivalSpeed="15.11" duration="23.00" routeLength="344.90" waitingTime="0.00" waitingCount="0" stopTime="0.00" timeLoss="0.00" rerouteNo="0" devices="tripinfo_B_20" vType="typeB" speedFactor="1.09" vaporized=""/>
    <tripinfo id="A_27" depart="513.00" departLane="E1_1" departPos="5.10" departSpeed="3.34" departDelay="0.00" arrival="538.00" arrivalLane="E2_0" arrivalPos="50.00" arrivalSpeed="13.85" duration="25.00" routeLength="344.90" waitingTime="0.00" waitingCount="0" stopTime="0.00" timeLoss="0.04" rerouteNo="0" devices="tripinfo_A_27" vType="typeA" speedFactor="1.00" vaporized=""/>
    <tripinfo id="B_21" depart="516.00" departLane="E1_0" departPos="5.10" departSpeed="10.15" departDelay="0.00" arrival="544.00" arrivalLane="E2_0" arrivalPos="50.00" arrivalSpeed="12.51" duration="28.00" routeLength="344.90" waitingTime="0.00" waitingCount="0" stopTime="0.00" timeLoss="0.00" rerouteNo="0" devices="tripinfo_B_21" vType="typeB" speedFactor="0.90" vaporized=""/>
    <tripinfo id="A_28" depart="517.00" departLane="E1_1" departPos="5.10" departSpeed="1.08" departDelay="0.00" arrival="546.00" arrivalLane="E2_0" arrivalPos="50.00" arrivalSpeed="12.18" duration="29.00" routeLength="344.90" waitingTime="0.00" waitingCount="0" stopTime="0.00" timeLoss="0.09" rerouteNo="0" devices="tripinfo_A_28" vType="typeA" speedFactor="0.88" vaporized=""/>
    <tripinfo id="B_22" depart="524.00" departLane="E1_0" departPos="5.10" departSpeed="7.89" departDelay="0.00" arrival="554.00" arrivalLane="E2_0" arrivalPos="50.00" arrivalSpeed="11.81" duration="30.00" routeLength="344.90" waitingTime="0.00" waitingCount="0" stopTime="0.00" timeLoss="0.00" rerouteNo="0" devices="tripinfo_B_22" vType="typeB" speedFactor="0.85" vaporized=""/>
    <tripinfo id="A_29" depart="532.00" departLane="E1_1" departPos="5.10" departSpeed="8.50" departDelay="0.00" arrival="562.00" arrivalLane="E2_0" arrivalPos="50.00" arrivalSpeed="11.87" duration="30.00" routeLength="344.90" waitingTime="0.00" waitingCount="0" stopTime="0.00" timeLoss="0.00" rerouteNo="0" devices="tripinfo_A_29" vType="typeA" speedFactor="0.85" vaporized=""/>
    <tripinfo id="B_23" depart="562.00" departLane="E1_0" departPos="5.10" departSpeed="9.68" departDelay="0.00" arrival="584.00" arrivalLane="E2_0" arrivalPos="50.00" arrivalSpeed="16.24" duration="22.00" routeLength="344.90" waitingTime="0.00" waitingCount="0" stopTime="0.00" timeLoss="0.00" rerouteNo="0" devices="tripinfo_B_23" vType="typeB" speedFactor="1.17" vaporized=""/>
    <tripinfo id="B_24" depart="566.00" departLane="E1_0" departPos="5.10" departSpeed="9.77" departDelay="0.00" arrival="591.00" arrivalLane="E2_0" arrivalPos="50.00" arrivalSpeed="14.12" duration="25.00" routeLength="344.90" waitingTime="0.00" waitingCount="0" stopTime="0.00" timeLoss="0.00" rerouteNo="0" devices="tripinfo_B_24" vType="typeB" speedFactor="1.02" vaporized=""/>
    <tripinfo id="B_25" depart="569.00" departLane="E1_0" departPos="5.10" departSpeed="14.23" departDelay="0.00" arrival="592.00" arrivalLane="E2_0" arrivalPos="50.00" arrivalSpeed="15.22" duration="23.00" routeLength="344.90" waitingTime="0.00" waitingCount="0" stopTime="0.00" timeLoss="0.23" rerouteNo="0" devices="tripinfo_B_25" vType="typeB" speedFactor="1.10" vaporized=""/>
    <tripinfo id="B_26" depart="582.00" departLane="E1_0" departPos="5.10" departSpeed="13.38" departDelay="0.00" arrival="607.00" arrivalLane="E2_0" arrivalPos="50.00" arrivalSpeed="13.93" duration="25.00" routeLength="344.90" waitingTime="0.00" waitingCount="0" stopTime="0.00" timeLoss="0.00" rerouteNo="0" devices="tripinfo_B_26" vType="typeB" speedFactor="1.00" vaporized=""/>
    <tripinfo id="A_30" depart="584.00" departLane="E1_1" departPos="5.10" departSpeed="4.26" departDelay="0.00" arrival="609.00" arrivalLane="E2_0" arrivalPos="50.00" arrivalSpeed="13.83" duration="25.00" routeLength="344.90" waitingTime="0.00" waitingCount="0" stopTime="0.00" timeLoss="0.00" rerouteNo="0" devices="tripinfo_A_30" vType="typeA" speedFactor="1.00" vaporized=""/>
    <tripinfo id="A_31" depart="587.00" departLane="E1_1" departPos="5.10" departSpeed="6.15" departDelay="0.00" arrival="615.00" arrivalLane="E2_0" arrivalPos="50.00" arrivalSpeed="12.49" duration="28.00" routeLength="344.90" waitingTime="0.00" waitingCount="0" stopTime="0.00" timeLoss="0.00" rerouteNo="0" devices="tripinfo_A_31" vType="typeA" speedFactor="0.90" vaporized=""/>
    <tripinfo id="A_32" depart="592.00" departLane="E1_1" departPos="5.10" departSpeed="9.21" departDelay="0.00" arrival="616.00" arrivalLane="E2_0" arrivalPos="50.00" arrivalSpeed="15.87" duration="24.00" routeLength="344.90" waitingTime="0.00" waitingCount="0" stopTime="0.00" timeLoss="2.23" rerouteNo="0" devices="tripinfo_A_32" vType="typeA" speedFactor="1.14" vaporized=""/>
    <tripinfo id="B_27" depart="592.00" departLane="E1_0" departPos="5.10" departSpeed="2.39" departDelay="0.00" arrival="618.00" arrivalLane="E2_0" arrivalPos="50.00" arrivalSpeed="14.22" duration="26.00" routeLength="344.90" waitingTime="0.00" waitingCount="0" stopTime="0.00" timeLoss="1.28" rerouteNo="0" devices="tripinfo_B_27" vType="typeB" speedFactor="1.02" vaporized=""/>
    <tripinfo id="B_28" depart="596.00" departLane="E1_0" departPos="5.10" departSpeed="12.86" departDelay="0.00" arrival="622.00" arrivalLane="E2_0" arrivalPos="50.00" arrivalSpeed="13.47" duration="26.00" routeLength="344.90" waitingTime="0.00" waitingCount="0" stopTime="0.00" timeLoss="0.00" rerouteNo="0" devices="tripinfo_B_28" vType="typeB" speedFactor="0.97" vaporized=""/>
</tripinfos>
