<?xml version="1.0" encoding="UTF-8"?>

<!-- generated on 2021-07-19 18:50:33 by Eclipse SUMO GUI Version 1.9.2
<configuration xmlns:xsi="http://www.w3.org/2001/XMLSchema-instance" xsi:noNamespaceSchemaLocation="http://sumo.dlr.de/xsd/sumoConfiguration.xsd">

    <input>
        <net-file value="sumo_data/laneMerging2.net.xml"/>
        <route-files value="sumo_data/laneMerging.rou.xml"/>
        <additional-files value="sumo_data/laneMerging.add.xml"/>
    </input>

    <output>
        <tripinfo-output value="sumo_data/tripinfo_dp.xml"/>
    </output>

    <report>
        <no-warnings value="true"/>
        <duration-log.disable value="true"/>
        <no-step-log value="true"/>
    </report>

    <traci_server>
        <remote-port value="55100"/>
    </traci_server>

    <gui_only>
        <gui-settings-file value="sumo_data/laneMerging.view.xml"/>
        <start value="true"/>
    </gui_only>

</configuration>
-->

<tripinfos xmlns:xsi="http://www.w3.org/2001/XMLSchema-instance" xsi:noNamespaceSchemaLocation="http://sumo.dlr.de/xsd/tripinfo_file.xsd">
    <tripinfo id="C_1" depart="1.00" departLane="E8_0" departPos="2.10" departSpeed="0.64" departDelay="0.00" arrival="438.00" arrivalLane="E10_0" arrivalPos="26.86" arrivalSpeed="12.67" duration="437.00" routeLength="6035.84" waitingTime="0.00" waitingCount="0" stopTime="0.00" timeLoss="5.23" rerouteNo="0" devices="tripinfo_C_1" vType="typeC" speedFactor="1.01" vaporized=""/>
    <tripinfo id="B_1" depart="1.00" departLane="E7_0" departPos="2.10" departSpeed="9.29" departDelay="0.00" arrival="465.00" arrivalLane="E9_0" arrivalPos="25.59" arrivalSpeed="13.03" duration="464.00" routeLength="6036.58" waitingTime="0.00" waitingCount="0" stopTime="0.00" timeLoss="0.23" rerouteNo="1" devices="tripinfo_B_1" vType="typeB" speedFactor="0.94" vaporized=""/>
    <tripinfo id="B_2" depart="2.00" departLane="E7_0" departPos="2.10" departSpeed="8.44" departDelay="0.00" arrival="466.00" arrivalLane="E10_0" arrivalPos="26.86" arrivalSpeed="14.31" duration="464.00" routeLength="6037.61" waitingTime="0.00" waitingCount="0" stopTime="0.00" timeLoss="41.69" rerouteNo="1" devices="tripinfo_B_2" vType="typeB" speedFactor="1.03" vaporized=""/>
    <tripinfo id="A_1" depart="1.00" departLane="E6_0" departPos="2.10" departSpeed="13.12" departDelay="0.00" arrival="473.00" arrivalLane="E9_0" arrivalPos="25.59" arrivalSpeed="10.50" duration="472.00" routeLength="6035.74" waitingTime="55.00" waitingCount="1" stopTime="0.00" timeLoss="61.59" rerouteNo="0" devices="tripinfo_A_1" vType="typeA" speedFactor="1.06" vaporized=""/>
    <tripinfo id="A_2" depart="2.00" departLane="E6_0" departPos="2.10" departSpeed="7.39" departDelay="0.00" arrival="475.00" arrivalLane="E9_0" arrivalPos="25.59" arrivalSpeed="12.00" duration="473.00" routeLength="6035.74" waitingTime="55.00" waitingCount="1" stopTime="0.00" timeLoss="70.65" rerouteNo="0" devices="tripinfo_A_2" vType="typeA" speedFactor="1.08" vaporized=""/>
    <tripinfo id="C_2" depart="3.00" departLane="E8_0" departPos="2.10" departSpeed="2.46" departDelay="1.00" arrival="531.00" arrivalLane="E10_0" arrivalPos="26.86" arrivalSpeed="11.22" duration="528.00" routeLength="6035.84" waitingTime="0.00" waitingCount="0" stopTime="0.00" timeLoss="3.84" rerouteNo="0" devices="tripinfo_C_2" vType="typeC" speedFactor="0.83" vaporized=""/>
</tripinfos>
