<?xml version="1.0" encoding="UTF-8"?>

<!-- generated on 2021-12-28 17:43:36 by Eclipse SUMO GUI Version 1.9.2
<configuration xmlns:xsi="http://www.w3.org/2001/XMLSchema-instance" xsi:noNamespaceSchemaLocation="http://sumo.dlr.de/xsd/sumoConfiguration.xsd">

    <input>
        <net-file value="sumo_data/laneMerging2.net.xml"/>
        <route-files value="sumo_data/laneMerging.rou.xml"/>
        <additional-files value="sumo_data/laneMerging.add.xml"/>
    </input>

    <output>
        <tripinfo-output value="sumo_data/tripinfo_dp.xml"/>
    </output>

    <report>
        <no-warnings value="true"/>
        <duration-log.disable value="true"/>
        <no-step-log value="true"/>
    </report>

    <traci_server>
        <remote-port value="51968"/>
    </traci_server>

    <gui_only>
        <gui-settings-file value="sumo_data/laneMerging.view.xml"/>
        <start value="true"/>
    </gui_only>

</configuration>
-->

<tripinfos xmlns:xsi="http://www.w3.org/2001/XMLSchema-instance" xsi:noNamespaceSchemaLocation="http://sumo.dlr.de/xsd/tripinfo_file.xsd">
    <tripinfo id="C_1" depart="1.00" departLane="E8_0" departPos="2.10" departSpeed="13.12" departDelay="0.00" arrival="413.00" arrivalLane="E10_0" arrivalPos="26.86" arrivalSpeed="11.58" duration="412.00" routeLength="6035.84" waitingTime="0.00" waitingCount="0" stopTime="0.00" timeLoss="1.57" rerouteNo="0" devices="tripinfo_C_1" vType="typeC" speedFactor="1.06" vaporized=""/>
    <tripinfo id="C_2" depart="11.00" departLane="E8_0" departPos="2.10" departSpeed="7.39" departDelay="0.00" arrival="416.00" arrivalLane="E10_0" arrivalPos="26.86" arrivalSpeed="13.26" duration="405.00" routeLength="6035.84" waitingTime="0.00" waitingCount="0" stopTime="0.00" timeLoss="2.64" rerouteNo="0" devices="tripinfo_C_2" vType="typeC" speedFactor="1.08" vaporized=""/>
    <tripinfo id="C_3" depart="20.00" departLane="E8_0" departPos="2.10" departSpeed="10.80" departDelay="0.00" arrival="438.00" arrivalLane="E10_0" arrivalPos="26.86" arrivalSpeed="11.46" duration="418.00" routeLength="6035.84" waitingTime="0.00" waitingCount="0" stopTime="0.00" timeLoss="1.57" rerouteNo="0" devices="tripinfo_C_3" vType="typeC" speedFactor="1.05" vaporized=""/>
    <tripinfo id="C_4" depart="28.00" departLane="E8_0" departPos="2.10" departSpeed="0.09" departDelay="0.00" arrival="440.00" arrivalLane="E10_0" arrivalPos="26.86" arrivalSpeed="12.96" duration="412.00" routeLength="6035.84" waitingTime="0.00" waitingCount="0" stopTime="0.00" timeLoss="12.55" rerouteNo="0" devices="tripinfo_C_4" vType="typeC" speedFactor="1.09" vaporized=""/>
    <tripinfo id="B_1" depart="8.00" departLane="E7_0" departPos="2.10" departSpeed="0.64" departDelay="0.00" arrival="442.00" arrivalLane="E9_0" arrivalPos="25.59" arrivalSpeed="14.03" duration="434.00" routeLength="6036.58" waitingTime="0.00" waitingCount="0" stopTime="0.00" timeLoss="3.79" rerouteNo="0" devices="tripinfo_B_1" vType="typeB" speedFactor="1.01" vaporized=""/>
    <tripinfo id="B_2" depart="13.00" departLane="E7_0" departPos="2.10" departSpeed="8.44" departDelay="0.00" arrival="444.00" arrivalLane="E9_0" arrivalPos="25.59" arrivalSpeed="14.31" duration="431.00" routeLength="6036.58" waitingTime="0.00" waitingCount="0" stopTime="0.00" timeLoss="8.40" rerouteNo="0" devices="tripinfo_B_2" vType="typeB" speedFactor="1.03" vaporized=""/>
    <tripinfo id="C_5" depart="33.00" departLane="E8_0" departPos="2.10" departSpeed="9.59" departDelay="0.00" arrival="460.00" arrivalLane="E10_0" arrivalPos="26.86" arrivalSpeed="12.80" duration="427.00" routeLength="6035.84" waitingTime="0.00" waitingCount="0" stopTime="0.00" timeLoss="2.29" rerouteNo="0" devices="tripinfo_C_5" vType="typeC" speedFactor="1.03" vaporized=""/>
    <tripinfo id="C_6" depart="35.00" departLane="E8_0" departPos="2.10" departSpeed="7.05" departDelay="0.00" arrival="461.00" arrivalLane="E10_0" arrivalPos="26.86" arrivalSpeed="12.80" duration="426.00" routeLength="6035.84" waitingTime="0.00" waitingCount="0" stopTime="0.00" timeLoss="38.12" rerouteNo="0" devices="tripinfo_C_6" vType="typeC" speedFactor="1.12" vaporized=""/>
    <tripinfo id="A_1" depart="3.00" departLane="E6_0" departPos="2.10" departSpeed="9.29" departDelay="0.00" arrival="468.00" arrivalLane="E9_0" arrivalPos="25.59" arrivalSpeed="12.26" duration="465.00" routeLength="6035.74" waitingTime="0.00" waitingCount="0" stopTime="0.00" timeLoss="0.89" rerouteNo="0" devices="tripinfo_A_1" vType="typeA" speedFactor="0.94" vaporized=""/>
    <tripinfo id="C_7" depart="43.00" departLane="E8_0" departPos="2.10" departSpeed="3.41" departDelay="0.00" arrival="516.00" arrivalLane="E10_0" arrivalPos="26.86" arrivalSpeed="12.00" duration="473.00" routeLength="6035.84" waitingTime="0.00" waitingCount="0" stopTime="0.00" timeLoss="3.31" rerouteNo="0" devices="tripinfo_C_7" vType="typeC" speedFactor="0.93" vaporized=""/>
    <tripinfo id="A_2" depart="23.00" departLane="E6_0" departPos="2.10" departSpeed="3.05" departDelay="0.00" arrival="517.00" arrivalLane="E9_0" arrivalPos="25.59" arrivalSpeed="11.74" duration="494.00" routeLength="6035.74" waitingTime="0.00" waitingCount="0" stopTime="0.00" timeLoss="2.59" rerouteNo="0" devices="tripinfo_A_2" vType="typeA" speedFactor="0.89" vaporized=""/>
    <tripinfo id="C_8" depart="55.00" departLane="E8_0" departPos="2.10" departSpeed="11.00" departDelay="0.00" arrival="517.00" arrivalLane="E10_0" arrivalPos="26.86" arrivalSpeed="12.00" duration="462.00" routeLength="6035.84" waitingTime="0.00" waitingCount="0" stopTime="0.00" timeLoss="86.42" rerouteNo="0" devices="tripinfo_C_8" vType="typeC" speedFactor="1.16" vaporized=""/>
    <tripinfo id="A_3" depart="26.00" departLane="E6_0" departPos="2.10" departSpeed="7.10" departDelay="0.00" arrival="518.00" arrivalLane="E9_0" arrivalPos="25.59" arrivalSpeed="11.74" duration="492.00" routeLength="6035.74" waitingTime="0.00" waitingCount="0" stopTime="0.00" timeLoss="28.39" rerouteNo="0" devices="tripinfo_A_3" vType="typeA" speedFactor="0.94" vaporized=""/>
    <tripinfo id="C_9" depart="57.00" departLane="E8_0" departPos="2.10" departSpeed="0.65" departDelay="0.00" arrival="519.00" arrivalLane="E10_0" arrivalPos="26.86" arrivalSpeed="12.74" duration="462.00" routeLength="6035.84" waitingTime="0.00" waitingCount="0" stopTime="0.00" timeLoss="34.31" rerouteNo="0" devices="tripinfo_C_9" vType="typeC" speedFactor="1.02" vaporized=""/>
    <tripinfo id="A_4" depart="35.00" departLane="E6_0" departPos="2.10" departSpeed="6.78" departDelay="0.00" arrival="520.00" arrivalLane="E9_0" arrivalPos="25.59" arrivalSpeed="13.24" duration="485.00" routeLength="6035.74" waitingTime="0.00" waitingCount="0" stopTime="0.00" timeLoss="68.89" rerouteNo="0" devices="tripinfo_A_4" vType="typeA" speedFactor="1.05" vaporized=""/>
    <tripinfo id="A_5" depart="47.00" departLane="E6_0" departPos="2.10" departSpeed="11.45" departDelay="0.00" arrival="521.00" arrivalLane="E9_0" arrivalPos="25.59" arrivalSpeed="12.29" duration="474.00" routeLength="6035.74" waitingTime="0.00" waitingCount="0" stopTime="0.00" timeLoss="12.01" rerouteNo="0" devices="tripinfo_A_5" vType="typeA" speedFactor="0.94" vaporized=""/>
    <tripinfo id="C_10" depart="59.00" departLane="E8_0" departPos="2.10" departSpeed="2.48" departDelay="0.00" arrival="521.00" arrivalLane="E10_0" arrivalPos="26.86" arrivalSpeed="12.39" duration="462.00" routeLength="6035.84" waitingTime="0.00" waitingCount="0" stopTime="0.00" timeLoss="15.25" rerouteNo="0" devices="tripinfo_C_10" vType="typeC" speedFactor="0.98" vaporized=""/>
    <tripinfo id="A_6" depart="59.00" departLane="E6_0" departPos="2.10" departSpeed="7.20" departDelay="0.00" arrival="523.00" arrivalLane="E9_0" arrivalPos="25.59" arrivalSpeed="12.97" duration="464.00" routeLength="6035.74" waitingTime="0.00" waitingCount="0" stopTime="0.00" timeLoss="32.70" rerouteNo="0" devices="tripinfo_A_6" vType="typeA" speedFactor="1.01" vaporized=""/>
    <tripinfo id="B_3" depart="15.00" departLane="E7_0" departPos="2.10" departSpeed="0.50" departDelay="0.00" arrival="542.00" arrivalLane="E9_0" arrivalPos="25.59" arrivalSpeed="11.54" duration="527.00" routeLength="6036.58" waitingTime="0.00" waitingCount="0" stopTime="0.00" timeLoss="3.06" rerouteNo="0" devices="tripinfo_B_3" vType="typeB" speedFactor="0.83" vaporized=""/>
    <tripinfo id="B_4" depart="28.00" departLane="E7_0" departPos="2.10" departSpeed="8.87" departDelay="0.00" arrival="543.00" arrivalLane="E9_0" arrivalPos="25.59" arrivalSpeed="11.90" duration="515.00" routeLength="6036.58" waitingTime="0.00" waitingCount="0" stopTime="0.00" timeLoss="7.23" rerouteNo="0" devices="tripinfo_B_4" vType="typeB" speedFactor="0.86" vaporized=""/>
    <tripinfo id="B_5" depart="40.00" departLane="E7_0" departPos="2.10" departSpeed="7.80" departDelay="0.00" arrival="544.00" arrivalLane="E9_0" arrivalPos="25.59" arrivalSpeed="13.04" duration="504.00" routeLength="6036.58" waitingTime="0.00" waitingCount="0" stopTime="0.00" timeLoss="65.24" rerouteNo="0" devices="tripinfo_B_5" vType="typeB" speedFactor="0.99" vaporized=""/>
    <tripinfo id="B_6" depart="46.00" departLane="E7_0" departPos="2.10" departSpeed="0.74" departDelay="0.00" arrival="546.00" arrivalLane="E9_0" arrivalPos="25.59" arrivalSpeed="12.20" duration="500.00" routeLength="6036.58" waitingTime="0.00" waitingCount="0" stopTime="0.00" timeLoss="4.38" rerouteNo="0" devices="tripinfo_B_6" vType="typeB" speedFactor="0.88" vaporized=""/>
    <tripinfo id="B_7" depart="54.00" departLane="E7_0" departPos="2.10" departSpeed="4.19" departDelay="0.00" arrival="547.00" arrivalLane="E9_0" arrivalPos="25.59" arrivalSpeed="13.00" duration="493.00" routeLength="6036.58" waitingTime="0.00" waitingCount="0" stopTime="0.00" timeLoss="28.26" rerouteNo="0" devices="tripinfo_B_7" vType="typeB" speedFactor="0.94" vaporized=""/>
    <tripinfo id="A_7" depart="62.00" departLane="E6_0" departPos="2.10" departSpeed="7.83" departDelay="0.00" arrival="552.00" arrivalLane="E9_0" arrivalPos="25.59" arrivalSpeed="11.78" duration="490.00" routeLength="6035.74" waitingTime="0.00" waitingCount="0" stopTime="0.00" timeLoss="1.10" rerouteNo="0" devices="tripinfo_A_7" vType="typeA" speedFactor="0.89" vaporized=""/>
    <tripinfo id="A_8" depart="68.00" departLane="E6_0" departPos="2.10" departSpeed="9.99" departDelay="0.00" arrival="567.00" arrivalLane="E9_0" arrivalPos="25.59" arrivalSpeed="11.61" duration="499.00" routeLength="6035.74" waitingTime="0.00" waitingCount="0" stopTime="0.00" timeLoss="0.67" rerouteNo="0" devices="tripinfo_A_8" vType="typeA" speedFactor="0.87" vaporized=""/>
    <tripinfo id="A_9" depart="73.00" departLane="E6_0" departPos="2.10" departSpeed="8.56" departDelay="0.00" arrival="569.00" arrivalLane="E9_0" arrivalPos="25.59" arrivalSpeed="13.11" duration="496.00" routeLength="6035.74" waitingTime="0.00" waitingCount="0" stopTime="0.00" timeLoss="111.24" rerouteNo="0" devices="tripinfo_A_9" vType="typeA" speedFactor="1.13" vaporized=""/>
    <tripinfo id="A_10" depart="77.00" departLane="E6_0" departPos="2.10" departSpeed="3.06" departDelay="0.00" arrival="570.00" arrivalLane="E9_0" arrivalPos="25.59" arrivalSpeed="12.19" duration="493.00" routeLength="6035.74" waitingTime="0.00" waitingCount="0" stopTime="0.00" timeLoss="25.96" rerouteNo="0" devices="tripinfo_A_10" vType="typeA" speedFactor="0.93" vaporized=""/>
    <tripinfo id="B_8" depart="63.00" departLane="E7_0" departPos="2.10" departSpeed="10.77" departDelay="0.00" arrival="590.00" arrivalLane="E9_0" arrivalPos="25.59" arrivalSpeed="11.47" duration="527.00" routeLength="6036.58" waitingTime="0.00" waitingCount="0" stopTime="0.00" timeLoss="0.00" rerouteNo="0" devices="tripinfo_B_8" vType="typeB" speedFactor="0.83" vaporized=""/>
    <tripinfo id="B_9" depart="70.00" departLane="E7_0" departPos="2.10" departSpeed="11.31" departDelay="0.00" arrival="591.00" arrivalLane="E9_0" arrivalPos="25.59" arrivalSpeed="12.74" duration="521.00" routeLength="6036.58" waitingTime="0.00" waitingCount="0" stopTime="0.00" timeLoss="46.86" rerouteNo="0" devices="tripinfo_B_9" vType="typeB" speedFactor="0.92" vaporized=""/>
    <tripinfo id="B_10" depart="72.00" departLane="E7_0" departPos="2.10" departSpeed="5.23" departDelay="0.00" arrival="593.00" arrivalLane="E9_0" arrivalPos="25.59" arrivalSpeed="13.18" duration="521.00" routeLength="6036.58" waitingTime="0.00" waitingCount="0" stopTime="0.00" timeLoss="61.99" rerouteNo="0" devices="tripinfo_B_10" vType="typeB" speedFactor="0.95" vaporized=""/>
</tripinfos>
