<?xml version="1.0" encoding="UTF-8"?>

<!-- generated on 2021-07-06 15:15:44 by Eclipse SUMO GUI Version 1.9.2
<configuration xmlns:xsi="http://www.w3.org/2001/XMLSchema-instance" xsi:noNamespaceSchemaLocation="http://sumo.dlr.de/xsd/sumoConfiguration.xsd">

    <input>
        <net-file value="sumo_data/laneMerging2.net.xml"/>
        <route-files value="sumo_data/laneMerging.rou.xml"/>
        <additional-files value="sumo_data/laneMerging.add.xml"/>
    </input>

    <output>
        <tripinfo-output value="sumo_data/tripinfo_dp.xml"/>
    </output>

    <report>
        <no-warnings value="true"/>
        <duration-log.disable value="true"/>
        <no-step-log value="true"/>
    </report>

    <traci_server>
        <remote-port value="49395"/>
    </traci_server>

    <gui_only>
        <gui-settings-file value="sumo_data/laneMerging.view.xml"/>
        <start value="true"/>
    </gui_only>

</configuration>
-->

<tripinfos xmlns:xsi="http://www.w3.org/2001/XMLSchema-instance" xsi:noNamespaceSchemaLocation="http://sumo.dlr.de/xsd/tripinfo_file.xsd">
    <tripinfo id="C_1" depart="4.00" departLane="E8_0" departPos="2.10" departSpeed="8.44" departDelay="0.00" arrival="429.00" arrivalLane="E10_0" arrivalPos="26.86" arrivalSpeed="12.84" duration="425.00" routeLength="6035.84" waitingTime="0.00" waitingCount="0" stopTime="0.00" timeLoss="2.06" rerouteNo="0" devices="tripinfo_C_1" vType="typeC" speedFactor="1.03" vaporized=""/>
    <tripinfo id="C_2" depart="5.00" departLane="E8_0" departPos="2.10" departSpeed="9.04" departDelay="0.00" arrival="430.00" arrivalLane="E10_0" arrivalPos="26.86" arrivalSpeed="11.46" duration="425.00" routeLength="6035.84" waitingTime="0.00" waitingCount="0" stopTime="0.00" timeLoss="8.51" rerouteNo="0" devices="tripinfo_C_2" vType="typeC" speedFactor="1.05" vaporized=""/>
    <tripinfo id="B_1" depart="2.00" departLane="E7_0" departPos="2.10" departSpeed="13.12" departDelay="0.00" arrival="438.00" arrivalLane="E10_0" arrivalPos="26.86" arrivalSpeed="10.50" duration="436.00" routeLength="6037.61" waitingTime="19.00" waitingCount="1" stopTime="0.00" timeLoss="25.80" rerouteNo="3" devices="tripinfo_B_1" vType="typeB" speedFactor="1.06" vaporized=""/>
    <tripinfo id="B_2" depart="4.00" departLane="E7_0" departPos="2.10" departSpeed="7.39" departDelay="0.00" arrival="440.00" arrivalLane="E10_0" arrivalPos="26.86" arrivalSpeed="12.00" duration="436.00" routeLength="6037.61" waitingTime="19.00" waitingCount="1" stopTime="0.00" timeLoss="33.89" rerouteNo="1" devices="tripinfo_B_2" vType="typeB" speedFactor="1.08" vaporized=""/>
    <tripinfo id="A_1" depart="3.00" departLane="E6_0" departPos="2.10" departSpeed="9.29" departDelay="0.00" arrival="468.00" arrivalLane="E9_0" arrivalPos="25.59" arrivalSpeed="12.26" duration="465.00" routeLength="6035.74" waitingTime="0.00" waitingCount="0" stopTime="0.00" timeLoss="0.89" rerouteNo="0" devices="tripinfo_A_1" vType="typeA" speedFactor="0.94" vaporized=""/>
    <tripinfo id="A_2" depart="4.00" departLane="E6_0" departPos="2.10" departSpeed="0.64" departDelay="0.00" arrival="469.00" arrivalLane="E9_0" arrivalPos="25.59" arrivalSpeed="12.26" duration="465.00" routeLength="6035.74" waitingTime="0.00" waitingCount="0" stopTime="0.00" timeLoss="34.59" rerouteNo="0" devices="tripinfo_A_2" vType="typeA" speedFactor="1.01" vaporized=""/>
    <tripinfo id="A_3" depart="6.00" departLane="E6_0" departPos="2.10" departSpeed="2.46" departDelay="0.00" arrival="501.00" arrivalLane="E9_0" arrivalPos="25.59" arrivalSpeed="11.74" duration="495.00" routeLength="6035.74" waitingTime="0.00" waitingCount="0" stopTime="0.00" timeLoss="3.67" rerouteNo="0" devices="tripinfo_A_3" vType="typeA" speedFactor="0.89" vaporized=""/>
    <tripinfo id="A_4" depart="12.00" departLane="E6_0" departPos="2.10" departSpeed="0.09" departDelay="0.00" arrival="503.00" arrivalLane="E9_0" arrivalPos="25.59" arrivalSpeed="13.24" duration="491.00" routeLength="6035.74" waitingTime="0.00" waitingCount="0" stopTime="0.00" timeLoss="91.53" rerouteNo="0" devices="tripinfo_A_4" vType="typeA" speedFactor="1.09" vaporized=""/>
    <tripinfo id="A_5" depart="20.00" departLane="E6_0" departPos="2.10" departSpeed="7.80" departDelay="0.00" arrival="507.00" arrivalLane="E9_0" arrivalPos="25.59" arrivalSpeed="10.47" duration="487.00" routeLength="6035.74" waitingTime="0.00" waitingCount="0" stopTime="0.00" timeLoss="48.26" rerouteNo="0" devices="tripinfo_A_5" vType="typeA" speedFactor="0.99" vaporized=""/>
    <tripinfo id="A_6" depart="21.00" departLane="E6_0" departPos="2.10" departSpeed="8.40" departDelay="0.00" arrival="509.00" arrivalLane="E9_0" arrivalPos="25.59" arrivalSpeed="11.97" duration="488.00" routeLength="6035.74" waitingTime="0.00" waitingCount="0" stopTime="0.00" timeLoss="25.40" rerouteNo="0" devices="tripinfo_A_6" vType="typeA" speedFactor="0.94" vaporized=""/>
    <tripinfo id="B_3" depart="5.00" departLane="E7_0" departPos="2.10" departSpeed="0.50" departDelay="0.00" arrival="532.00" arrivalLane="E10_0" arrivalPos="26.86" arrivalSpeed="11.54" duration="527.00" routeLength="6037.61" waitingTime="0.00" waitingCount="0" stopTime="0.00" timeLoss="3.11" rerouteNo="1" devices="tripinfo_B_3" vType="typeB" speedFactor="0.83" vaporized=""/>
    <tripinfo id="B_4" depart="9.00" departLane="E7_0" departPos="2.10" departSpeed="7.10" departDelay="0.00" arrival="533.00" arrivalLane="E9_0" arrivalPos="25.59" arrivalSpeed="13.03" duration="524.00" routeLength="6036.58" waitingTime="0.00" waitingCount="0" stopTime="0.00" timeLoss="59.73" rerouteNo="1" devices="tripinfo_B_4" vType="typeB" speedFactor="0.94" vaporized=""/>
    <tripinfo id="B_5" depart="15.00" departLane="E7_0" departPos="2.10" departSpeed="6.78" departDelay="0.00" arrival="534.00" arrivalLane="E9_0" arrivalPos="25.59" arrivalSpeed="14.53" duration="519.00" routeLength="6036.58" waitingTime="0.00" waitingCount="0" stopTime="0.00" timeLoss="103.35" rerouteNo="1" devices="tripinfo_B_5" vType="typeB" speedFactor="1.05" vaporized=""/>
    <tripinfo id="B_6" depart="20.00" departLane="E7_0" departPos="2.10" departSpeed="3.41" departDelay="0.00" arrival="539.00" arrivalLane="E9_0" arrivalPos="25.59" arrivalSpeed="12.09" duration="519.00" routeLength="6036.58" waitingTime="0.00" waitingCount="0" stopTime="0.00" timeLoss="49.30" rerouteNo="1" devices="tripinfo_B_6" vType="typeB" speedFactor="0.93" vaporized=""/>
    <tripinfo id="C_3" depart="9.00" departLane="E8_0" departPos="2.10" departSpeed="8.87" departDelay="0.00" arrival="540.00" arrivalLane="E10_0" arrivalPos="26.86" arrivalSpeed="10.50" duration="531.00" routeLength="6035.84" waitingTime="18.00" waitingCount="1" stopTime="0.00" timeLoss="23.10" rerouteNo="0" devices="tripinfo_C_3" vType="typeC" speedFactor="0.86" vaporized=""/>
    <tripinfo id="B_7" depart="21.00" departLane="E7_0" departPos="2.10" departSpeed="3.11" departDelay="0.00" arrival="540.00" arrivalLane="E9_0" arrivalPos="25.59" arrivalSpeed="12.09" duration="519.00" routeLength="6036.58" waitingTime="0.00" waitingCount="0" stopTime="0.00" timeLoss="54.36" rerouteNo="1" devices="tripinfo_B_7" vType="typeB" speedFactor="0.94" vaporized=""/>
    <tripinfo id="C_4" depart="14.00" departLane="E8_0" departPos="2.10" departSpeed="9.59" departDelay="0.00" arrival="542.00" arrivalLane="E10_0" arrivalPos="26.86" arrivalSpeed="12.00" duration="528.00" routeLength="6035.84" waitingTime="18.00" waitingCount="1" stopTime="0.00" timeLoss="103.32" rerouteNo="0" devices="tripinfo_C_4" vType="typeC" speedFactor="1.03" vaporized=""/>
    <tripinfo id="C_5" depart="15.00" departLane="E8_0" departPos="2.10" departSpeed="7.05" departDelay="0.00" arrival="543.00" arrivalLane="E10_0" arrivalPos="26.86" arrivalSpeed="11.25" duration="528.00" routeLength="6035.84" waitingTime="18.00" waitingCount="1" stopTime="0.00" timeLoss="140.37" rerouteNo="0" devices="tripinfo_C_5" vType="typeC" speedFactor="1.12" vaporized=""/>
    <tripinfo id="C_6" depart="20.00" departLane="E8_0" departPos="2.10" departSpeed="0.74" departDelay="0.00" arrival="546.00" arrivalLane="E10_0" arrivalPos="26.86" arrivalSpeed="11.61" duration="526.00" routeLength="6035.84" waitingTime="18.00" waitingCount="1" stopTime="0.00" timeLoss="29.75" rerouteNo="0" devices="tripinfo_C_6" vType="typeC" speedFactor="0.88" vaporized=""/>
    <tripinfo id="B_8" depart="26.00" departLane="E7_0" departPos="2.10" departSpeed="4.16" departDelay="0.00" arrival="553.00" arrivalLane="E10_0" arrivalPos="26.86" arrivalSpeed="10.50" duration="527.00" routeLength="6037.61" waitingTime="8.00" waitingCount="1" stopTime="0.00" timeLoss="81.06" rerouteNo="1" devices="tripinfo_B_8" vType="typeB" speedFactor="0.98" vaporized=""/>
    <tripinfo id="B_9" depart="33.00" departLane="E7_0" departPos="2.10" departSpeed="10.99" departDelay="0.00" arrival="555.00" arrivalLane="E9_0" arrivalPos="25.59" arrivalSpeed="12.00" duration="522.00" routeLength="6036.58" waitingTime="8.00" waitingCount="1" stopTime="0.00" timeLoss="144.93" rerouteNo="1" devices="tripinfo_B_9" vType="typeB" speedFactor="1.15" vaporized=""/>
    <tripinfo id="B_10" depart="34.00" departLane="E7_0" departPos="2.10" departSpeed="4.63" departDelay="0.00" arrival="559.00" arrivalLane="E10_0" arrivalPos="26.86" arrivalSpeed="11.25" duration="525.00" routeLength="6037.61" waitingTime="8.00" waitingCount="1" stopTime="0.00" timeLoss="92.04" rerouteNo="1" devices="tripinfo_B_10" vType="typeB" speedFactor="1.01" vaporized=""/>
    <tripinfo id="A_7" depart="23.00" departLane="E6_0" departPos="2.10" departSpeed="10.56" departDelay="0.00" arrival="562.00" arrivalLane="E9_0" arrivalPos="25.59" arrivalSpeed="10.50" duration="539.00" routeLength="6035.74" waitingTime="49.00" waitingCount="1" stopTime="0.00" timeLoss="163.40" rerouteNo="0" devices="tripinfo_A_7" vType="typeA" speedFactor="1.16" vaporized=""/>
    <tripinfo id="A_8" depart="29.00" departLane="E6_0" departPos="2.10" departSpeed="6.60" departDelay="0.00" arrival="564.00" arrivalLane="E9_0" arrivalPos="25.59" arrivalSpeed="12.00" duration="535.00" routeLength="6035.74" waitingTime="29.00" waitingCount="1" stopTime="0.00" timeLoss="35.81" rerouteNo="0" devices="tripinfo_A_8" vType="typeA" speedFactor="0.87" vaporized=""/>
    <tripinfo id="C_7" depart="23.00" departLane="E8_0" departPos="2.10" departSpeed="0.65" departDelay="0.00" arrival="566.00" arrivalLane="E10_0" arrivalPos="26.86" arrivalSpeed="10.50" duration="543.00" routeLength="6035.84" waitingTime="34.00" waitingCount="2" stopTime="0.00" timeLoss="115.51" rerouteNo="0" devices="tripinfo_C_7" vType="typeC" speedFactor="1.02" vaporized=""/>
    <tripinfo id="C_8" depart="25.00" departLane="E8_0" departPos="2.10" departSpeed="2.48" departDelay="0.00" arrival="568.00" arrivalLane="E10_0" arrivalPos="26.86" arrivalSpeed="12.00" duration="543.00" routeLength="6035.84" waitingTime="34.00" waitingCount="2" stopTime="0.00" timeLoss="111.53" rerouteNo="0" devices="tripinfo_C_8" vType="typeC" speedFactor="1.01" vaporized=""/>
    <tripinfo id="A_9" depart="30.00" departLane="E6_0" departPos="2.10" departSpeed="3.02" departDelay="0.00" arrival="569.00" arrivalLane="E9_0" arrivalPos="25.59" arrivalSpeed="10.50" duration="539.00" routeLength="6035.74" waitingTime="30.00" waitingCount="2" stopTime="0.00" timeLoss="64.71" rerouteNo="0" devices="tripinfo_A_9" vType="typeA" speedFactor="0.92" vaporized=""/>
    <tripinfo id="C_9" depart="27.00" departLane="E8_0" departPos="2.10" departSpeed="2.97" departDelay="1.00" arrival="570.00" arrivalLane="E10_0" arrivalPos="26.86" arrivalSpeed="11.70" duration="543.00" routeLength="6035.84" waitingTime="34.00" waitingCount="2" stopTime="0.00" timeLoss="53.02" rerouteNo="0" devices="tripinfo_C_9" vType="typeC" speedFactor="0.89" vaporized=""/>
    <tripinfo id="A_10" depart="31.00" departLane="E6_0" departPos="2.10" departSpeed="2.52" departDelay="0.00" arrival="571.00" arrivalLane="E9_0" arrivalPos="25.59" arrivalSpeed="12.00" duration="540.00" routeLength="6035.74" waitingTime="30.00" waitingCount="2" stopTime="0.00" timeLoss="155.12" rerouteNo="0" devices="tripinfo_A_10" vType="typeA" speedFactor="1.13" vaporized=""/>
    <tripinfo id="C_10" depart="29.00" departLane="E8_0" departPos="2.10" departSpeed="3.94" departDelay="2.00" arrival="572.00" arrivalLane="E10_0" arrivalPos="26.86" arrivalSpeed="11.18" duration="543.00" routeLength="6035.84" waitingTime="6.00" waitingCount="1" stopTime="0.00" timeLoss="15.24" rerouteNo="0" devices="tripinfo_C_10" vType="typeC" speedFactor="0.83" vaporized=""/>
    <tripinfo id="C_11" depart="31.00" departLane="E8_0" departPos="2.10" departSpeed="3.98" departDelay="1.00" arrival="573.00" arrivalLane="E10_0" arrivalPos="26.86" arrivalSpeed="10.68" duration="542.00" routeLength="6035.84" waitingTime="6.00" waitingCount="1" stopTime="0.00" timeLoss="83.29" rerouteNo="0" devices="tripinfo_C_11" vType="typeC" speedFactor="0.95" vaporized=""/>
    <tripinfo id="B_11" depart="37.00" departLane="E7_0" departPos="2.10" departSpeed="1.73" departDelay="0.00" arrival="578.00" arrivalLane="E9_0" arrivalPos="25.59" arrivalSpeed="10.50" duration="541.00" routeLength="6036.58" waitingTime="24.00" waitingCount="2" stopTime="0.00" timeLoss="103.98" rerouteNo="1" devices="tripinfo_B_11" vType="typeB" speedFactor="0.99" vaporized=""/>
    <tripinfo id="B_12" depart="48.00" departLane="E7_0" departPos="2.10" departSpeed="13.55" departDelay="0.00" arrival="580.00" arrivalLane="E10_0" arrivalPos="26.86" arrivalSpeed="12.00" duration="532.00" routeLength="6037.61" waitingTime="24.00" waitingCount="2" stopTime="0.00" timeLoss="114.76" rerouteNo="1" devices="tripinfo_B_12" vType="typeB" speedFactor="1.04" vaporized=""/>
    <tripinfo id="B_13" depart="49.00" departLane="E7_0" departPos="2.10" departSpeed="13.92" departDelay="0.00" arrival="581.00" arrivalLane="E10_0" arrivalPos="26.86" arrivalSpeed="12.00" duration="532.00" routeLength="6037.61" waitingTime="24.00" waitingCount="2" stopTime="0.00" timeLoss="132.16" rerouteNo="1" devices="tripinfo_B_13" vType="typeB" speedFactor="1.09" vaporized=""/>
    <tripinfo id="B_14" depart="50.00" departLane="E7_0" departPos="2.10" departSpeed="4.26" departDelay="0.00" arrival="582.00" arrivalLane="E9_0" arrivalPos="25.59" arrivalSpeed="12.00" duration="532.00" routeLength="6036.58" waitingTime="24.00" waitingCount="2" stopTime="0.00" timeLoss="96.21" rerouteNo="1" devices="tripinfo_B_14" vType="typeB" speedFactor="1.00" vaporized=""/>
    <tripinfo id="B_15" depart="51.00" departLane="E7_0" departPos="2.10" departSpeed="4.26" departDelay="0.00" arrival="586.00" arrivalLane="E10_0" arrivalPos="26.86" arrivalSpeed="12.00" duration="535.00" routeLength="6037.61" waitingTime="24.00" waitingCount="2" stopTime="0.00" timeLoss="51.55" rerouteNo="1" devices="tripinfo_B_15" vType="typeB" speedFactor="0.90" vaporized=""/>
    <tripinfo id="B_16" depart="53.00" departLane="E7_0" departPos="2.10" departSpeed="5.68" departDelay="0.00" arrival="587.00" arrivalLane="E10_0" arrivalPos="26.86" arrivalSpeed="12.00" duration="534.00" routeLength="6037.61" waitingTime="23.00" waitingCount="2" stopTime="0.00" timeLoss="37.91" rerouteNo="1" devices="tripinfo_B_16" vType="typeB" speedFactor="0.88" vaporized=""/>
    <tripinfo id="A_11" depart="33.00" departLane="E6_0" departPos="2.10" departSpeed="0.39" departDelay="1.00" arrival="590.00" arrivalLane="E9_0" arrivalPos="25.59" arrivalSpeed="10.50" duration="557.00" routeLength="6035.74" waitingTime="45.00" waitingCount="3" stopTime="0.00" timeLoss="89.88" rerouteNo="0" devices="tripinfo_A_11" vType="typeA" speedFactor="0.93" vaporized=""/>
    <tripinfo id="A_12" depart="36.00" departLane="E6_0" departPos="2.10" departSpeed="2.11" departDelay="0.00" arrival="592.00" arrivalLane="E9_0" arrivalPos="25.59" arrivalSpeed="12.00" duration="556.00" routeLength="6035.74" waitingTime="45.00" waitingCount="3" stopTime="0.00" timeLoss="184.25" rerouteNo="0" devices="tripinfo_A_12" vType="typeA" speedFactor="1.17" vaporized=""/>
    <tripinfo id="C_12" depart="32.00" departLane="E8_0" departPos="2.10" departSpeed="3.62" departDelay="0.00" arrival="595.00" arrivalLane="E10_0" arrivalPos="26.86" arrivalSpeed="10.50" duration="563.00" routeLength="6035.84" waitingTime="23.00" waitingCount="2" stopTime="0.00" timeLoss="193.71" rerouteNo="0" devices="tripinfo_C_12" vType="typeC" speedFactor="1.18" vaporized=""/>
    <tripinfo id="A_13" depart="38.00" departLane="E6_0" departPos="2.10" departSpeed="4.81" departDelay="0.00" arrival="597.00" arrivalLane="E9_0" arrivalPos="25.59" arrivalSpeed="10.50" duration="559.00" routeLength="6035.74" waitingTime="46.00" waitingCount="4" stopTime="0.00" timeLoss="132.36" rerouteNo="0" devices="tripinfo_A_13" vType="typeA" speedFactor="1.02" vaporized=""/>
    <tripinfo id="C_13" depart="43.00" departLane="E8_0" departPos="2.10" departSpeed="2.10" departDelay="0.00" arrival="597.00" arrivalLane="E10_0" arrivalPos="26.86" arrivalSpeed="11.79" duration="554.00" routeLength="6035.84" waitingTime="23.00" waitingCount="2" stopTime="0.00" timeLoss="70.11" rerouteNo="0" devices="tripinfo_C_13" vType="typeC" speedFactor="0.90" vaporized=""/>
    <tripinfo id="C_14" depart="45.00" departLane="E8_0" departPos="2.10" departSpeed="3.45" departDelay="1.00" arrival="598.00" arrivalLane="E10_0" arrivalPos="26.86" arrivalSpeed="11.25" duration="553.00" routeLength="6035.84" waitingTime="23.00" waitingCount="2" stopTime="0.00" timeLoss="130.56" rerouteNo="0" devices="tripinfo_C_14" vType="typeC" speedFactor="1.03" vaporized=""/>
    <tripinfo id="A_14" depart="39.00" departLane="E6_0" departPos="2.10" departSpeed="2.96" departDelay="0.00" arrival="599.00" arrivalLane="E9_0" arrivalPos="25.59" arrivalSpeed="12.00" duration="560.00" routeLength="6035.74" waitingTime="46.00" waitingCount="4" stopTime="0.00" timeLoss="112.40" rerouteNo="0" devices="tripinfo_A_14" vType="typeA" speedFactor="0.97" vaporized=""/>
    <tripinfo id="C_15" depart="46.00" departLane="E8_0" departPos="2.10" departSpeed="1.18" departDelay="1.00" arrival="600.00" arrivalLane="E10_0" arrivalPos="26.86" arrivalSpeed="10.74" duration="554.00" routeLength="6035.84" waitingTime="23.00" waitingCount="2" stopTime="0.00" timeLoss="99.27" rerouteNo="0" devices="tripinfo_C_15" vType="typeC" speedFactor="0.96" vaporized=""/>
    <tripinfo id="C_16" depart="48.00" departLane="E8_0" departPos="2.10" departSpeed="3.37" departDelay="2.00" arrival="602.00" arrivalLane="E10_0" arrivalPos="26.86" arrivalSpeed="11.81" duration="554.00" routeLength="6035.84" waitingTime="23.00" waitingCount="2" stopTime="0.00" timeLoss="155.16" rerouteNo="0" devices="tripinfo_C_16" vType="typeC" speedFactor="1.09" vaporized=""/>
    <tripinfo id="A_15" depart="42.00" departLane="E6_0" departPos="2.10" departSpeed="4.33" departDelay="0.00" arrival="604.00" arrivalLane="E9_0" arrivalPos="25.59" arrivalSpeed="10.50" duration="562.00" routeLength="6035.74" waitingTime="47.00" waitingCount="5" stopTime="0.00" timeLoss="193.22" rerouteNo="0" devices="tripinfo_A_15" vType="typeA" speedFactor="1.18" vaporized=""/>
    <tripinfo id="C_17" depart="57.00" departLane="E8_0" departPos="2.10" departSpeed="2.98" departDelay="0.00" arrival="604.00" arrivalLane="E10_0" arrivalPos="26.86" arrivalSpeed="11.91" duration="547.00" routeLength="6035.84" waitingTime="23.00" waitingCount="2" stopTime="0.00" timeLoss="174.39" rerouteNo="0" devices="tripinfo_C_17" vType="typeC" speedFactor="1.17" vaporized=""/>
    <tripinfo id="A_16" depart="43.00" departLane="E6_0" departPos="2.10" departSpeed="3.42" departDelay="0.00" arrival="606.00" arrivalLane="E9_0" arrivalPos="25.59" arrivalSpeed="12.00" duration="563.00" routeLength="6035.74" waitingTime="47.00" waitingCount="5" stopTime="0.00" timeLoss="167.81" rerouteNo="0" devices="tripinfo_A_16" vType="typeA" speedFactor="1.10" vaporized=""/>
    <tripinfo id="C_18" depart="59.00" departLane="E8_0" departPos="2.10" departSpeed="2.31" departDelay="0.00" arrival="606.00" arrivalLane="E10_0" arrivalPos="26.86" arrivalSpeed="11.86" duration="547.00" routeLength="6035.84" waitingTime="23.00" waitingCount="2" stopTime="0.00" timeLoss="149.54" rerouteNo="0" devices="tripinfo_C_18" vType="typeC" speedFactor="1.10" vaporized=""/>
    <tripinfo id="C_19" depart="61.00" departLane="E8_0" departPos="2.10" departSpeed="0.95" departDelay="0.00" arrival="608.00" arrivalLane="E10_0" arrivalPos="26.86" arrivalSpeed="11.28" duration="547.00" routeLength="6035.84" waitingTime="23.00" waitingCount="2" stopTime="0.00" timeLoss="121.61" rerouteNo="0" devices="tripinfo_C_19" vType="typeC" speedFactor="1.02" vaporized=""/>
    <tripinfo id="C_20" depart="64.00" departLane="E8_0" departPos="2.10" departSpeed="5.27" departDelay="0.00" arrival="610.00" arrivalLane="E10_0" arrivalPos="26.86" arrivalSpeed="11.99" duration="546.00" routeLength="6035.84" waitingTime="23.00" waitingCount="2" stopTime="0.00" timeLoss="156.87" rerouteNo="0" devices="tripinfo_C_20" vType="typeC" speedFactor="1.12" vaporized=""/>
    <tripinfo id="A_17" depart="48.00" departLane="E6_0" departPos="2.10" departSpeed="9.97" departDelay="0.00" arrival="611.00" arrivalLane="E9_0" arrivalPos="25.59" arrivalSpeed="10.50" duration="563.00" routeLength="6035.74" waitingTime="48.00" waitingCount="6" stopTime="0.00" timeLoss="143.80" rerouteNo="0" devices="tripinfo_A_17" vType="typeA" speedFactor="1.04" vaporized=""/>
    <tripinfo id="C_21" depart="66.00" departLane="E8_0" departPos="2.10" departSpeed="7.67" departDelay="0.00" arrival="612.00" arrivalLane="E10_0" arrivalPos="26.86" arrivalSpeed="10.98" duration="546.00" routeLength="6035.84" waitingTime="23.00" waitingCount="2" stopTime="0.00" timeLoss="104.90" rerouteNo="0" devices="tripinfo_C_21" vType="typeC" speedFactor="0.99" vaporized=""/>
    <tripinfo id="A_18" depart="60.00" departLane="E6_0" departPos="2.10" departSpeed="0.39" departDelay="0.00" arrival="613.00" arrivalLane="E9_0" arrivalPos="25.59" arrivalSpeed="12.00" duration="553.00" routeLength="6035.74" waitingTime="48.00" waitingCount="6" stopTime="0.00" timeLoss="118.76" rerouteNo="0" devices="tripinfo_A_18" vType="typeA" speedFactor="1.00" vaporized=""/>
    <tripinfo id="A_19" depart="62.00" departLane="E6_0" departPos="2.10" departSpeed="2.08" departDelay="1.00" arrival="618.00" arrivalLane="E9_0" arrivalPos="25.59" arrivalSpeed="10.50" duration="556.00" routeLength="6035.74" waitingTime="43.00" waitingCount="7" stopTime="0.00" timeLoss="72.03" rerouteNo="0" devices="tripinfo_A_19" vType="typeA" speedFactor="0.90" vaporized=""/>
    <tripinfo id="B_17" depart="54.00" departLane="E7_0" departPos="2.10" departSpeed="1.99" departDelay="0.00" arrival="620.00" arrivalLane="E10_0" arrivalPos="26.86" arrivalSpeed="10.50" duration="566.00" routeLength="6037.61" waitingTime="40.00" waitingCount="2" stopTime="0.00" timeLoss="54.68" rerouteNo="1" devices="tripinfo_B_17" vType="typeB" speedFactor="0.85" vaporized=""/>
    <tripinfo id="A_20" depart="64.00" departLane="E6_0" departPos="2.10" departSpeed="2.37" departDelay="0.00" arrival="620.00" arrivalLane="E9_0" arrivalPos="25.59" arrivalSpeed="12.00" duration="556.00" routeLength="6035.74" waitingTime="43.00" waitingCount="7" stopTime="0.00" timeLoss="153.57" rerouteNo="0" devices="tripinfo_A_20" vType="typeA" speedFactor="1.08" vaporized=""/>
    <tripinfo id="B_18" depart="56.00" departLane="E7_0" departPos="2.10" departSpeed="4.65" departDelay="0.00" arrival="622.00" arrivalLane="E10_0" arrivalPos="26.86" arrivalSpeed="11.87" duration="566.00" routeLength="6037.61" waitingTime="40.00" waitingCount="2" stopTime="0.00" timeLoss="56.79" rerouteNo="1" devices="tripinfo_B_18" vType="typeB" speedFactor="0.85" vaporized=""/>
    <tripinfo id="B_19" depart="59.00" departLane="E7_0" departPos="2.10" departSpeed="8.98" departDelay="0.00" arrival="627.00" arrivalLane="E10_0" arrivalPos="26.86" arrivalSpeed="10.50" duration="568.00" routeLength="6037.61" waitingTime="41.00" waitingCount="3" stopTime="0.00" timeLoss="140.37" rerouteNo="1" devices="tripinfo_B_19" vType="typeB" speedFactor="1.02" vaporized=""/>
    <tripinfo id="B_20" depart="60.00" departLane="E7_0" departPos="2.10" departSpeed="3.86" departDelay="0.00" arrival="629.00" arrivalLane="E10_0" arrivalPos="26.86" arrivalSpeed="12.00" duration="569.00" routeLength="6037.61" waitingTime="41.00" waitingCount="3" stopTime="0.00" timeLoss="131.92" rerouteNo="1" devices="tripinfo_B_20" vType="typeB" speedFactor="1.00" vaporized=""/>
    <tripinfo id="B_21" depart="61.00" departLane="E7_0" departPos="2.10" departSpeed="3.79" departDelay="0.00" arrival="634.00" arrivalLane="E10_0" arrivalPos="26.86" arrivalSpeed="10.50" duration="573.00" routeLength="6037.61" waitingTime="42.00" waitingCount="4" stopTime="0.00" timeLoss="192.43" rerouteNo="1" devices="tripinfo_B_21" vType="typeB" speedFactor="1.14" vaporized=""/>
    <tripinfo id="B_22" depart="63.00" departLane="E7_0" departPos="2.10" departSpeed="5.05" departDelay="0.00" arrival="636.00" arrivalLane="E9_0" arrivalPos="25.59" arrivalSpeed="12.00" duration="573.00" routeLength="6036.58" waitingTime="42.00" waitingCount="4" stopTime="0.00" timeLoss="124.02" rerouteNo="1" devices="tripinfo_B_22" vType="typeB" speedFactor="0.97" vaporized=""/>
    <tripinfo id="B_23" depart="72.00" departLane="E7_0" departPos="2.10" departSpeed="3.07" departDelay="0.00" arrival="637.00" arrivalLane="E9_0" arrivalPos="25.59" arrivalSpeed="12.00" duration="565.00" routeLength="6036.58" waitingTime="42.00" waitingCount="4" stopTime="0.00" timeLoss="146.73" rerouteNo="1" devices="tripinfo_B_23" vType="typeB" speedFactor="1.04" vaporized=""/>
    <tripinfo id="C_22" depart="69.00" departLane="E8_0" departPos="2.10" departSpeed="9.09" departDelay="0.00" arrival="642.00" arrivalLane="E10_0" arrivalPos="26.86" arrivalSpeed="10.50" duration="573.00" routeLength="6035.84" waitingTime="48.00" waitingCount="3" stopTime="0.00" timeLoss="93.05" rerouteNo="0" devices="tripinfo_C_22" vType="typeC" speedFactor="0.91" vaporized=""/>
    <tripinfo id="C_23" depart="71.00" departLane="E8_0" departPos="2.10" departSpeed="3.68" departDelay="0.00" arrival="644.00" arrivalLane="E10_0" arrivalPos="26.86" arrivalSpeed="11.90" duration="573.00" routeLength="6035.84" waitingTime="48.00" waitingCount="3" stopTime="0.00" timeLoss="96.48" rerouteNo="0" devices="tripinfo_C_23" vType="typeC" speedFactor="0.91" vaporized=""/>
    <tripinfo id="A_21" depart="66.00" departLane="E6_0" departPos="2.10" departSpeed="1.21" departDelay="0.00" arrival="645.00" arrivalLane="E9_0" arrivalPos="25.59" arrivalSpeed="10.50" duration="579.00" routeLength="6035.74" waitingTime="64.00" waitingCount="8" stopTime="0.00" timeLoss="150.72" rerouteNo="0" devices="tripinfo_A_21" vType="typeA" speedFactor="1.02" vaporized=""/>
    <tripinfo id="C_24" depart="75.00" departLane="E8_0" departPos="2.10" departSpeed="5.09" departDelay="0.00" arrival="646.00" arrivalLane="E10_0" arrivalPos="26.86" arrivalSpeed="12.11" duration="571.00" routeLength="6035.84" waitingTime="48.00" waitingCount="3" stopTime="0.00" timeLoss="107.22" rerouteNo="0" devices="tripinfo_C_24" vType="typeC" speedFactor="0.94" vaporized=""/>
    <tripinfo id="A_22" depart="68.00" departLane="E6_0" departPos="2.10" departSpeed="2.35" departDelay="1.00" arrival="647.00" arrivalLane="E9_0" arrivalPos="25.59" arrivalSpeed="12.00" duration="579.00" routeLength="6035.74" waitingTime="64.00" waitingCount="8" stopTime="0.00" timeLoss="114.42" rerouteNo="0" devices="tripinfo_A_22" vType="typeA" speedFactor="0.94" vaporized=""/>
    <tripinfo id="C_25" depart="79.00" departLane="E8_0" departPos="2.10" departSpeed="10.95" departDelay="0.00" arrival="647.00" arrivalLane="E10_0" arrivalPos="26.86" arrivalSpeed="10.73" duration="568.00" routeLength="6035.84" waitingTime="48.00" waitingCount="3" stopTime="0.00" timeLoss="112.33" rerouteNo="0" devices="tripinfo_C_25" vType="typeC" speedFactor="0.96" vaporized=""/>
    <tripinfo id="C_26" depart="82.00" departLane="E8_0" departPos="2.10" departSpeed="8.00" departDelay="0.00" arrival="649.00" arrivalLane="E10_0" arrivalPos="26.86" arrivalSpeed="10.97" duration="567.00" routeLength="6035.84" waitingTime="48.00" waitingCount="3" stopTime="0.00" timeLoss="125.01" rerouteNo="0" devices="tripinfo_C_26" vType="typeC" speedFactor="0.98" vaporized=""/>
    <tripinfo id="A_23" depart="70.00" departLane="E6_0" departPos="2.10" departSpeed="4.31" departDelay="2.00" arrival="652.00" arrivalLane="E9_0" arrivalPos="25.59" arrivalSpeed="10.50" duration="582.00" routeLength="6035.74" waitingTime="55.00" waitingCount="9" stopTime="0.00" timeLoss="88.94" rerouteNo="0" devices="tripinfo_A_23" vType="typeA" speedFactor="0.88" vaporized=""/>
    <tripinfo id="A_24" depart="74.00" departLane="E6_0" departPos="2.10" departSpeed="9.64" departDelay="0.00" arrival="654.00" arrivalLane="E9_0" arrivalPos="25.59" arrivalSpeed="12.00" duration="580.00" routeLength="6035.74" waitingTime="55.00" waitingCount="9" stopTime="0.00" timeLoss="153.81" rerouteNo="0" devices="tripinfo_A_24" vType="typeA" speedFactor="1.02" vaporized=""/>
    <tripinfo id="B_24" depart="74.00" departLane="E7_0" departPos="2.10" departSpeed="6.01" departDelay="0.00" arrival="657.00" arrivalLane="E10_0" arrivalPos="26.86" arrivalSpeed="10.50" duration="583.00" routeLength="6037.61" waitingTime="57.00" waitingCount="5" stopTime="0.00" timeLoss="157.98" rerouteNo="1" devices="tripinfo_B_24" vType="typeB" speedFactor="1.02" vaporized=""/>
    <tripinfo id="B_25" depart="75.00" departLane="E7_0" departPos="2.10" departSpeed="4.61" departDelay="0.00" arrival="659.00" arrivalLane="E10_0" arrivalPos="26.86" arrivalSpeed="12.00" duration="584.00" routeLength="6037.61" waitingTime="57.00" waitingCount="5" stopTime="0.00" timeLoss="136.53" rerouteNo="1" devices="tripinfo_B_25" vType="typeB" speedFactor="0.97" vaporized=""/>