<?xml version="1.0" encoding="UTF-8"?>

<!-- generated on 2022-05-16 03:15:50 by Eclipse SUMO GUI Version 1.9.2
<configuration xmlns:xsi="http://www.w3.org/2001/XMLSchema-instance" xsi:noNamespaceSchemaLocation="http://sumo.dlr.de/xsd/sumoConfiguration.xsd">

    <input>
        <net-file value="sumo_data/laneMerging4.net.xml"/>
        <route-files value="sumo_data/laneMerging.rou.xml"/>
        <additional-files value="sumo_data/laneMerging4.add.xml"/>
    </input>

    <output>
        <tripinfo-output value="sumo_data/tripinfo_fcfs.xml"/>
    </output>

    <time>
        <step-length value="0.5"/>
    </time>

    <report>
        <no-warnings value="true"/>
        <duration-log.disable value="true"/>
        <no-step-log value="true"/>
    </report>

    <traci_server>
        <remote-port value="63646"/>
    </traci_server>

    <gui_only>
        <gui-settings-file value="sumo_data/laneMerging.view.xml"/>
        <start value="true"/>
        <tracker-interval value="0.5"/>
    </gui_only>

</configuration>
-->

<tripinfos xmlns:xsi="http://www.w3.org/2001/XMLSchema-instance" xsi:noNamespaceSchemaLocation="http://sumo.dlr.de/xsd/tripinfo_file.xsd">
    <tripinfo id="C_1" depart="1.00" departLane="incoming_0" departPos="4.60" departSpeed="0.00" departDelay="0.00" arrival="330.50" arrivalLane="Y_0" arrivalPos="20.00" arrivalSpeed="20.00" duration="329.50" routeLength="6528.21" waitingTime="0.00" waitingCount="0" stopTime="0.00" timeLoss="3.09" rerouteNo="0" devices="tripinfo_C_1" vType="typeC" speedFactor="1.06" vaporized=""/>
    <tripinfo id="B_1" depart="2.00" departLane="incoming_1" departPos="4.60" departSpeed="0.00" departDelay="0.00" arrival="332.00" arrivalLane="X_0" arrivalPos="20.00" arrivalSpeed="20.00" duration="330.00" routeLength="6528.74" waitingTime="0.00" waitingCount="0" stopTime="0.00" timeLoss="3.09" rerouteNo="1" devices="tripinfo_B_1" vType="typeB" speedFactor="1.01" vaporized=""/>
    <tripinfo id="C_2" depart="3.00" departLane="incoming_0" departPos="4.60" departSpeed="0.00" departDelay="1.00" arrival="333.50" arrivalLane="Y_0" arrivalPos="20.00" arrivalSpeed="20.00" duration="330.50" routeLength="6528.21" waitingTime="0.00" waitingCount="0" stopTime="0.00" timeLoss="3.60" rerouteNo="0" devices="tripinfo_C_2" vType="typeC" speedFactor="1.08" vaporized=""/>
    <tripinfo id="C_3" depart="5.00" departLane="incoming_0" departPos="4.60" departSpeed="0.00" departDelay="2.00" arrival="341.00" arrivalLane="Y_0" arrivalPos="20.00" arrivalSpeed="20.00" duration="336.00" routeLength="6528.21" waitingTime="0.00" waitingCount="0" stopTime="0.00" timeLoss="9.26" rerouteNo="0" devices="tripinfo_C_3" vType="typeC" speedFactor="1.05" vaporized=""/>
    <tripinfo id="A_1" depart="2.00" departLane="incoming_2" departPos="4.60" departSpeed="0.00" departDelay="0.00" arrival="353.50" arrivalLane="X_0" arrivalPos="20.00" arrivalSpeed="18.77" duration="351.50" routeLength="6528.74" waitingTime="0.00" waitingCount="0" stopTime="0.00" timeLoss="3.27" rerouteNo="0" devices="tripinfo_A_1" vType="typeA" speedFactor="0.94" vaporized=""/>
    <tripinfo id="A_2" depart="4.00" departLane="incoming_2" departPos="4.60" departSpeed="0.00" departDelay="1.00" arrival="355.50" arrivalLane="X_0" arrivalPos="20.00" arrivalSpeed="20.00" duration="351.50" routeLength="6528.74" waitingTime="0.00" waitingCount="0" stopTime="0.00" timeLoss="24.93" rerouteNo="0" devices="tripinfo_A_2" vType="typeA" speedFactor="1.03" vaporized=""/>
    <tripinfo id="A_3" depart="6.00" departLane="incoming_2" departPos="4.60" departSpeed="0.00" departDelay="0.00" arrival="358.00" arrivalLane="X_0" arrivalPos="20.00" arrivalSpeed="18.76" duration="352.00" routeLength="6528.74" waitingTime="0.00" waitingCount="0" stopTime="0.00" timeLoss="3.49" rerouteNo="0" devices="tripinfo_A_3" vType="typeA" speedFactor="0.94" vaporized=""/>
    <tripinfo id="A_4" depart="8.00" departLane="incoming_2" departPos="4.60" departSpeed="0.00" departDelay="1.00" arrival="360.00" arrivalLane="X_0" arrivalPos="20.00" arrivalSpeed="20.00" duration="352.00" routeLength="6528.74" waitingTime="0.00" waitingCount="0" stopTime="0.00" timeLoss="25.07" rerouteNo="0" devices="tripinfo_A_4" vType="typeA" speedFactor="1.03" vaporized=""/>
    <tripinfo id="A_5" depart="10.00" departLane="incoming_2" departPos="4.60" departSpeed="0.00" departDelay="2.00" arrival="362.00" arrivalLane="X_0" arrivalPos="20.00" arrivalSpeed="19.26" duration="352.00" routeLength="6528.74" waitingTime="0.00" waitingCount="0" stopTime="0.00" timeLoss="25.19" rerouteNo="0" devices="tripinfo_A_5" vType="typeA" speedFactor="1.05" vaporized=""/>
    <tripinfo id="A_6" depart="12.00" departLane="incoming_2" departPos="4.60" departSpeed="0.00" departDelay="2.00" arrival="368.00" arrivalLane="X_0" arrivalPos="20.00" arrivalSpeed="18.54" duration="356.00" routeLength="6528.74" waitingTime="0.00" waitingCount="0" stopTime="0.00" timeLoss="3.45" rerouteNo="0" devices="tripinfo_A_6" vType="typeA" speedFactor="0.93" vaporized=""/>
    <tripinfo id="A_7" depart="14.00" departLane="incoming_2" departPos="4.60" departSpeed="0.00" departDelay="3.00" arrival="370.00" arrivalLane="X_0" arrivalPos="20.00" arrivalSpeed="18.72" duration="356.00" routeLength="6528.74" waitingTime="0.00" waitingCount="0" stopTime="0.00" timeLoss="7.11" rerouteNo="0" devices="tripinfo_A_7" vType="typeA" speedFactor="0.94" vaporized=""/>
    <tripinfo id="A_8" depart="16.00" departLane="incoming_2" departPos="4.60" departSpeed="0.00" departDelay="4.00" arrival="372.00" arrivalLane="X_0" arrivalPos="20.00" arrivalSpeed="20.00" duration="356.00" routeLength="6528.74" waitingTime="0.00" waitingCount="0" stopTime="0.00" timeLoss="29.28" rerouteNo="0" devices="tripinfo_A_8" vType="typeA" speedFactor="1.02" vaporized=""/>
    <tripinfo id="A_9" depart="18.00" departLane="incoming_2" departPos="4.60" departSpeed="0.00" departDelay="4.00" arrival="388.50" arrivalLane="X_0" arrivalPos="20.00" arrivalSpeed="17.79" duration="370.50" routeLength="6528.74" waitingTime="0.00" waitingCount="0" stopTime="0.00" timeLoss="3.33" rerouteNo="0" devices="tripinfo_A_9" vType="typeA" speedFactor="0.89" vaporized=""/>
    <tripinfo id="C_4" depart="7.00" departLane="incoming_0" departPos="4.60" departSpeed="0.00" departDelay="3.00" arrival="395.00" arrivalLane="Y_0" arrivalPos="20.00" arrivalSpeed="17.72" duration="388.00" routeLength="6528.21" waitingTime="0.00" waitingCount="0" stopTime="0.00" timeLoss="19.58" rerouteNo="0" devices="tripinfo_C_4" vType="typeC" speedFactor="0.89" vaporized=""/>
    <tripinfo id="C_5" depart="9.00" departLane="incoming_0" departPos="4.60" departSpeed="0.00" departDelay="3.00" arrival="398.50" arrivalLane="Y_0" arrivalPos="20.00" arrivalSpeed="20.00" duration="389.50" routeLength="6528.21" waitingTime="0.00" waitingCount="0" stopTime="0.00" timeLoss="62.74" rerouteNo="0" devices="tripinfo_C_5" vType="typeC" speedFactor="1.09" vaporized=""/>
    <tripinfo id="B_2" depart="4.00" departLane="incoming_1" departPos="4.60" departSpeed="0.00" departDelay="1.00" arrival="400.50" arrivalLane="X_0" arrivalPos="20.00" arrivalSpeed="16.62" duration="396.50" routeLength="6528.74" waitingTime="0.00" waitingCount="0" stopTime="0.00" timeLoss="3.41" rerouteNo="1" devices="tripinfo_B_2" vType="typeB" speedFactor="0.83" vaporized=""/>
    <tripinfo id="C_6" depart="11.00" departLane="incoming_0" departPos="4.60" departSpeed="0.00" departDelay="2.00" arrival="401.50" arrivalLane="Y_0" arrivalPos="20.00" arrivalSpeed="19.82" duration="390.50" routeLength="6528.21" waitingTime="0.00" waitingCount="0" stopTime="0.00" timeLoss="60.69" rerouteNo="0" devices="tripinfo_C_6" vType="typeC" speedFactor="0.99" vaporized=""/>
    <tripinfo id="B_3" depart="6.00" departLane="incoming_1" departPos="4.60" departSpeed="0.00" departDelay="0.00" arrival="405.50" arrivalLane="Y_0" arrivalPos="20.00" arrivalSpeed="17.14" duration="399.50" routeLength="6528.21" waitingTime="1.50" waitingCount="1" stopTime="0.00" timeLoss="18.31" rerouteNo="1" devices="tripinfo_B_3" vType="typeB" speedFactor="0.86" vaporized=""/>
    <tripinfo id="B_4" depart="8.00" departLane="incoming_1" departPos="4.60" departSpeed="0.00" departDelay="0.00" arrival="407.00" arrivalLane="X_0" arrivalPos="20.00" arrivalSpeed="20.00" duration="399.00" routeLength="6528.74" waitingTime="0.00" waitingCount="0" stopTime="0.00" timeLoss="72.49" rerouteNo="1" devices="tripinfo_B_4" vType="typeB" speedFactor="1.12" vaporized=""/>
    <tripinfo id="C_7" depart="13.00" departLane="incoming_0" departPos="4.60" departSpeed="0.00" departDelay="3.00" arrival="408.00" arrivalLane="Y_0" arrivalPos="20.00" arrivalSpeed="18.83" duration="395.00" routeLength="6528.21" waitingTime="0.00" waitingCount="0" stopTime="0.00" timeLoss="48.11" rerouteNo="0" devices="tripinfo_C_7" vType="typeC" speedFactor="0.94" vaporized=""/>
    <tripinfo id="B_5" depart="10.00" departLane="incoming_1" departPos="4.60" departSpeed="0.00" departDelay="0.00" arrival="409.50" arrivalLane="X_0" arrivalPos="20.00" arrivalSpeed="17.57" duration="399.50" routeLength="6528.74" waitingTime="0.00" waitingCount="0" stopTime="0.00" timeLoss="27.61" rerouteNo="1" devices="tripinfo_B_5" vType="typeB" speedFactor="0.88" vaporized=""/>
    <tripinfo id="C_8" depart="17.00" departLane="incoming_0" departPos="4.60" departSpeed="0.00" departDelay="0.00" arrival="410.00" arrivalLane="Y_0" arrivalPos="20.00" arrivalSpeed="18.98" duration="393.00" routeLength="6528.21" waitingTime="0.00" waitingCount="0" stopTime="0.00" timeLoss="48.94" rerouteNo="0" devices="tripinfo_C_8" vType="typeC" speedFactor="0.95" vaporized=""/>
    <tripinfo id="B_6" depart="12.00" departLane="incoming_1" departPos="4.60" departSpeed="0.00" departDelay="1.00" arrival="411.50" arrivalLane="X_0" arrivalPos="20.00" arrivalSpeed="20.00" duration="399.50" routeLength="6528.74" waitingTime="0.00" waitingCount="0" stopTime="0.00" timeLoss="72.76" rerouteNo="1" devices="tripinfo_B_6" vType="typeB" speedFactor="1.16" vaporized=""/>
    <tripinfo id="B_7" depart="14.00" departLane="incoming_1" departPos="4.60" departSpeed="0.00" departDelay="2.00" arrival="413.50" arrivalLane="X_0" arrivalPos="20.00" arrivalSpeed="18.81" duration="399.50" routeLength="6528.74" waitingTime="0.00" waitingCount="0" stopTime="0.00" timeLoss="72.97" rerouteNo="1" devices="tripinfo_B_7" vType="typeB" speedFactor="1.01" vaporized=""/>
    <tripinfo id="B_8" depart="16.00" departLane="incoming_1" departPos="4.60" departSpeed="0.00" departDelay="3.00" arrival="415.50" arrivalLane="Y_0" arrivalPos="20.00" arrivalSpeed="19.50" duration="399.50" routeLength="6528.21" waitingTime="0.00" waitingCount="0" stopTime="0.00" timeLoss="64.30" rerouteNo="1" devices="tripinfo_B_8" vType="typeB" speedFactor="0.98" vaporized=""/>
    <tripinfo id="B_9" depart="18.00" departLane="incoming_1" departPos="4.60" departSpeed="0.00" departDelay="2.00" arrival="417.50" arrivalLane="X_0" arrivalPos="20.00" arrivalSpeed="17.45" duration="399.50" routeLength="6528.74" waitingTime="0.00" waitingCount="0" stopTime="0.00" timeLoss="25.16" rerouteNo="1" devices="tripinfo_B_9" vType="typeB" speedFactor="0.87" vaporized=""/>
    <tripinfo id="B_10" depart="20.00" departLane="incoming_1" departPos="4.60" departSpeed="0.00" departDelay="0.00" arrival="419.50" arrivalLane="Y_0" arrivalPos="20.00" arrivalSpeed="20.00" duration="399.50" routeLength="6528.21" waitingTime="0.00" waitingCount="0" stopTime="0.00" timeLoss="72.74" rerouteNo="1" devices="tripinfo_B_10" vType="typeB" speedFactor="1.01" vaporized=""/>
    <tripinfo id="B_11" depart="22.00" departLane="incoming_1" departPos="4.60" departSpeed="0.00" departDelay="1.00" arrival="421.50" arrivalLane="X_0" arrivalPos="20.00" arrivalSpeed="19.90" duration="399.50" routeLength="6528.74" waitingTime="0.00" waitingCount="0" stopTime="0.00" timeLoss="71.31" rerouteNo="1" devices="tripinfo_B_11" vType="typeB" speedFactor="0.99" vaporized=""/>
    <tripinfo id="B_12" depart="24.00" departLane="incoming_1" departPos="4.60" departSpeed="0.00" departDelay="2.00" arrival="424.00" arrivalLane="Y_0" arrivalPos="20.00" arrivalSpeed="20.00" duration="400.00" routeLength="6528.21" waitingTime="0.00" waitingCount="0" stopTime="0.00" timeLoss="73.10" rerouteNo="1" devices="tripinfo_B_12" vType="typeB" speedFactor="1.18" vaporized=""/>
    <tripinfo id="B_13" depart="26.00" departLane="incoming_1" departPos="4.60" departSpeed="0.00" departDelay="3.00" arrival="426.50" arrivalLane="X_0" arrivalPos="20.00" arrivalSpeed="18.01" duration="400.50" routeLength="6528.74" waitingTime="0.00" waitingCount="0" stopTime="0.00" timeLoss="37.60" rerouteNo="1" devices="tripinfo_B_13" vType="typeB" speedFactor="0.90" vaporized=""/>
    <tripinfo id="C_9" depart="19.00" departLane="incoming_0" departPos="4.60" departSpeed="0.00" departDelay="1.00" arrival="427.00" arrivalLane="Y_0" arrivalPos="20.00" arrivalSpeed="18.63" duration="408.00" routeLength="6528.21" waitingTime="4.50" waitingCount="1" stopTime="0.00" timeLoss="57.23" rerouteNo="0" devices="tripinfo_C_9" vType="typeC" speedFactor="0.93" vaporized=""/>
    <tripinfo id="B_14" depart="28.00" departLane="incoming_1" departPos="4.60" departSpeed="0.00" departDelay="4.00" arrival="428.50" arrivalLane="X_0" arrivalPos="20.00" arrivalSpeed="19.14" duration="400.50" routeLength="6528.74" waitingTime="0.00" waitingCount="0" stopTime="0.00" timeLoss="59.22" rerouteNo="1" devices="tripinfo_B_14" vType="typeB" speedFactor="0.96" vaporized=""/>
    <tripinfo id="C_10" depart="21.00" departLane="incoming_0" departPos="4.60" departSpeed="0.00" departDelay="2.00" arrival="429.00" arrivalLane="Y_0" arrivalPos="20.00" arrivalSpeed="18.68" duration="408.00" routeLength="6528.21" waitingTime="2.00" waitingCount="3" stopTime="0.00" timeLoss="81.56" rerouteNo="0" devices="tripinfo_C_10" vType="typeC" speedFactor="1.18" vaporized=""/>
    <tripinfo id="C_11" depart="23.00" departLane="incoming_0" departPos="4.60" departSpeed="0.00" departDelay="3.00" arrival="431.50" arrivalLane="Y_0" arrivalPos="20.00" arrivalSpeed="19.41" duration="408.50" routeLength="6528.21" waitingTime="1.00" waitingCount="2" stopTime="0.00" timeLoss="81.78" rerouteNo="0" devices="tripinfo_C_11" vType="typeC" speedFactor="1.17" vaporized=""/>
    <tripinfo id="A_10" depart="20.00" departLane="incoming_2" departPos="4.60" departSpeed="0.00" departDelay="5.00" arrival="433.00" arrivalLane="X_0" arrivalPos="20.00" arrivalSpeed="16.51" duration="413.00" routeLength="6528.74" waitingTime="3.00" waitingCount="1" stopTime="0.00" timeLoss="17.50" rerouteNo="0" devices="tripinfo_A_10" vType="typeA" speedFactor="0.83" vaporized=""/>
    <tripinfo id="C_12" depart="25.00" departLane="incoming_0" departPos="4.60" departSpeed="0.00" departDelay="4.00" arrival="434.00" arrivalLane="Y_0" arrivalPos="20.00" arrivalSpeed="18.77" duration="409.00" routeLength="6528.21" waitingTime="1.00" waitingCount="2" stopTime="0.00" timeLoss="82.29" rerouteNo="0" devices="tripinfo_C_12" vType="typeC" speedFactor="1.02" vaporized=""/>
    <tripinfo id="B_15" depart="30.00" departLane="incoming_1" departPos="4.60" departSpeed="0.00" departDelay="5.00" arrival="435.50" arrivalLane="X_0" arrivalPos="20.00" arrivalSpeed="19.68" duration="405.50" routeLength="6528.74" waitingTime="0.00" waitingCount="0" stopTime="0.00" timeLoss="78.96" rerouteNo="1" devices="tripinfo_B_15" vType="typeB" speedFactor="1.04" vaporized=""/>
    <tripinfo id="B_16" depart="32.00" departLane="incoming_1" departPos="4.60" departSpeed="0.00" departDelay="6.00" arrival="437.50" arrivalLane="Y_0" arrivalPos="20.00" arrivalSpeed="20.00" duration="405.50" routeLength="6528.21" waitingTime="0.00" waitingCount="0" stopTime="0.00" timeLoss="78.71" rerouteNo="1" devices="tripinfo_B_16" vType="typeB" speedFactor="1.09" vaporized=""/>
    <tripinfo id="A_11" depart="22.00" departLane="incoming_2" departPos="4.60" departSpeed="0.00" departDelay="5.00" arrival="438.50" arrivalLane="X_0" arrivalPos="20.00" arrivalSpeed="18.34" duration="416.50" routeLength="6528.74" waitingTime="3.00" waitingCount="1" stopTime="0.00" timeLoss="60.35" rerouteNo="0" devices="tripinfo_A_11" vType="typeA" speedFactor="0.92" vaporized=""/>
    <tripinfo id="B_17" depart="34.00" departLane="incoming_1" departPos="4.60" departSpeed="0.00" departDelay="7.00" arrival="440.00" arrivalLane="Y_0" arrivalPos="20.00" arrivalSpeed="18.01" duration="406.00" routeLength="6528.21" waitingTime="0.00" waitingCount="0" stopTime="0.00" timeLoss="43.29" rerouteNo="1" devices="tripinfo_B_17" vType="typeB" speedFactor="0.90" vaporized=""/>
    <tripinfo id="A_12" depart="24.00" departLane="incoming_2" departPos="4.60" departSpeed="0.00" departDelay="6.00" arrival="441.00" arrivalLane="X_0" arrivalPos="20.00" arrivalSpeed="17.79" duration="417.00" routeLength="6528.74" waitingTime="1.00" waitingCount="2" stopTime="0.00" timeLoss="90.40" rerouteNo="0" devices="tripinfo_A_12" vType="typeA" speedFactor="1.13" vaporized=""/>
    <tripinfo id="B_18" depart="36.00" departLane="incoming_1" departPos="4.60" departSpeed="0.00" departDelay="8.00" arrival="442.50" arrivalLane="Y_0" arrivalPos="20.00" arrivalSpeed="17.10" duration="406.50" routeLength="6528.21" waitingTime="0.00" waitingCount="0" stopTime="0.00" timeLoss="24.55" rerouteNo="1" devices="tripinfo_B_18" vType="typeB" speedFactor="0.85" vaporized=""/>
    <tripinfo id="A_13" depart="26.00" departLane="incoming_2" departPos="4.60" departSpeed="0.00" departDelay="6.00" arrival="444.00" arrivalLane="X_0" arrivalPos="20.00" arrivalSpeed="18.32" duration="418.00" routeLength="6528.74" waitingTime="0.50" waitingCount="1" stopTime="0.00" timeLoss="91.17" rerouteNo="0" devices="tripinfo_A_13" vType="typeA" speedFactor="1.15" vaporized=""/>
    <tripinfo id="B_19" depart="38.00" departLane="incoming_1" departPos="4.60" departSpeed="0.00" departDelay="7.00" arrival="445.00" arrivalLane="Y_0" arrivalPos="20.00" arrivalSpeed="17.97" duration="407.00" routeLength="6528.21" waitingTime="0.00" waitingCount="0" stopTime="0.00" timeLoss="80.53" rerouteNo="1" devices="tripinfo_B_19" vType="typeB" speedFactor="1.10" vaporized=""/>
    <tripinfo id="A_14" depart="28.00" departLane="incoming_2" departPos="4.60" departSpeed="0.00" departDelay="6.00" arrival="446.50" arrivalLane="X_0" arrivalPos="20.00" arrivalSpeed="17.46" duration="418.50" routeLength="6528.74" waitingTime="0.00" waitingCount="0" stopTime="0.00" timeLoss="82.98" rerouteNo="0" devices="tripinfo_A_14" vType="typeA" speedFactor="0.97" vaporized=""/>
    <tripinfo id="C_13" depart="27.00" departLane="incoming_0" departPos="4.60" departSpeed="0.00" departDelay="4.00" arrival="449.00" arrivalLane="Y_0" arrivalPos="20.00" arrivalSpeed="17.96" duration="422.00" routeLength="6528.21" waitingTime="16.50" waitingCount="1" stopTime="0.00" timeLoss="95.22" rerouteNo="0" devices="tripinfo_C_13" vType="typeC" speedFactor="1.03" vaporized=""/>
    <tripinfo id="B_20" depart="40.00" departLane="incoming_1" departPos="4.60" departSpeed="0.00" departDelay="8.00" arrival="450.00" arrivalLane="X_0" arrivalPos="20.00" arrivalSpeed="17.24" duration="410.00" routeLength="6528.74" waitingTime="0.00" waitingCount="0" stopTime="0.00" timeLoss="81.97" rerouteNo="1" devices="tripinfo_B_20" vType="typeB" speedFactor="1.00" vaporized=""/>
    <tripinfo id="C_14" depart="29.00" departLane="incoming_0" departPos="4.60" departSpeed="0.00" departDelay="4.00" arrival="451.50" arrivalLane="Y_0" arrivalPos="20.00" arrivalSpeed="17.47" duration="422.50" routeLength="6528.21" waitingTime="14.00" waitingCount="3" stopTime="0.00" timeLoss="95.94" rerouteNo="0" devices="tripinfo_C_14" vType="typeC" speedFactor="1.04" vaporized=""/>
    <tripinfo id="A_15" depart="30.00" departLane="incoming_2" departPos="4.60" departSpeed="0.00" departDelay="7.00" arrival="453.50" arrivalLane="X_0" arrivalPos="20.00" arrivalSpeed="17.55" duration="423.50" routeLength="6528.74" waitingTime="6.00" waitingCount="1" stopTime="0.00" timeLoss="96.69" rerouteNo="0" devices="tripinfo_A_15" vType="typeA" speedFactor="1.10" vaporized=""/>
    <tripinfo id="B_21" depart="42.00" departLane="incoming_1" departPos="4.60" departSpeed="0.00" departDelay="9.00" arrival="455.00" arrivalLane="Y_0" arrivalPos="20.00" arrivalSpeed="16.88" duration="413.00" routeLength="6528.21" waitingTime="0.00" waitingCount="0" stopTime="0.00" timeLoss="86.40" rerouteNo="1" devices="tripinfo_B_21" vType="typeB" speedFactor="1.14" vaporized=""/>
    <tripinfo id="B_22" depart="44.00" departLane="incoming_1" departPos="4.60" departSpeed="0.00" departDelay="10.00" arrival="458.00" arrivalLane="X_0" arrivalPos="20.00" arrivalSpeed="18.40" duration="414.00" routeLength="6528.74" waitingTime="0.00" waitingCount="0" stopTime="0.00" timeLoss="77.07" rerouteNo="1" devices="tripinfo_B_22" vType="typeB" speedFactor="0.97" vaporized=""/>
    <tripinfo id="C_15" depart="31.00" departLane="incoming_0" departPos="4.60" departSpeed="0.00" departDelay="5.00" arrival="459.00" arrivalLane="Y_0" arrivalPos="20.00" arrivalSpeed="16.94" duration="428.00" routeLength="6528.21" waitingTime="10.50" waitingCount="1" stopTime="0.00" timeLoss="100.56" rerouteNo="0" devices="tripinfo_C_15" vType="typeC" speedFactor="1.00" vaporized=""/>
    <tripinfo id="A_16" depart="32.00" departLane="incoming_2" departPos="4.60" departSpeed="0.00" departDelay="7.00" arrival="461.50" arrivalLane="X_0" arrivalPos="20.00" arrivalSpeed="17.28" duration="429.50" routeLength="6528.74" waitingTime="8.00" waitingCount="1" stopTime="0.00" timeLoss="102.72" rerouteNo="0" devices="tripinfo_A_16" vType="typeA" speedFactor="1.09" vaporized=""/>
    <tripinfo id="C_16" depart="33.00" departLane="incoming_0" departPos="4.60" departSpeed="0.00" departDelay="6.00" arrival="462.00" arrivalLane="Y_0" arrivalPos="20.00" arrivalSpeed="17.41" duration="429.00" routeLength="6528.21" waitingTime="8.00" waitingCount="2" stopTime="0.00" timeLoss="56.49" rerouteNo="0" devices="tripinfo_C_16" vType="typeC" speedFactor="0.88" vaporized=""/>
    <tripinfo id="A_17" depart="34.00" departLane="incoming_2" departPos="4.60" departSpeed="0.00" departDelay="6.00" arrival="464.00" arrivalLane="X_0" arrivalPos="20.00" arrivalSpeed="16.82" duration="430.00" routeLength="6528.74" waitingTime="5.50" waitingCount="3" stopTime="0.00" timeLoss="46.03" rerouteNo="0" devices="tripinfo_A_17" vType="typeA" speedFactor="0.85" vaporized=""/>
    <tripinfo id="C_17" depart="35.00" departLane="incoming_0" departPos="4.60" departSpeed="0.00" departDelay="3.00" arrival="464.00" arrivalLane="Y_0" arrivalPos="20.00" arrivalSpeed="17.12" duration="429.00" routeLength="6528.21" waitingTime="6.50" waitingCount="5" stopTime="0.00" timeLoss="65.81" rerouteNo="0" devices="tripinfo_C_17" vType="typeC" speedFactor="0.90" vaporized=""/>
    <tripinfo id="A_18" depart="36.00" departLane="incoming_2" departPos="4.60" departSpeed="0.00" departDelay="7.00" arrival="466.50" arrivalLane="X_0" arrivalPos="20.00" arrivalSpeed="17.36" duration="430.50" routeLength="6528.74" waitingTime="4.50" waitingCount="3" stopTime="0.00" timeLoss="104.00" rerouteNo="0" devices="tripinfo_A_18" vType="typeA" speedFactor="1.17" vaporized=""/>
    <tripinfo id="C_18" depart="37.00" departLane="incoming_0" departPos="4.60" departSpeed="0.00" departDelay="4.00" arrival="467.00" arrivalLane="Y_0" arrivalPos="20.00" arrivalSpeed="18.06" duration="430.00" routeLength="6528.21" waitingTime="5.00" waitingCount="4" stopTime="0.00" timeLoss="103.28" rerouteNo="0" devices="tripinfo_C_18" vType="typeC" speedFactor="1.02" vaporized=""/>
    <tripinfo id="B_23" depart="46.00" departLane="incoming_1" departPos="4.60" departSpeed="0.00" departDelay="11.00" arrival="471.00" arrivalLane="Y_0" arrivalPos="20.00" arrivalSpeed="17.80" duration="425.00" routeLength="6528.21" waitingTime="0.00" waitingCount="0" stopTime="0.00" timeLoss="98.25" rerouteNo="1" devices="tripinfo_B_23" vType="typeB" speedFactor="1.02" vaporized=""/>
    <tripinfo id="B_24" depart="48.00" departLane="incoming_1" departPos="4.60" departSpeed="0.00" departDelay="10.00" arrival="472.50" arrivalLane="X_0" arrivalPos="20.00" arrivalSpeed="18.14" duration="424.50" routeLength="6528.74" waitingTime="0.50" waitingCount="1" stopTime="0.00" timeLoss="64.42" rerouteNo="1" devices="tripinfo_B_24" vType="typeB" speedFactor="0.91" vaporized=""/>
    <tripinfo id="C_19" depart="39.00" departLane="incoming_0" departPos="4.60" departSpeed="0.00" departDelay="5.00" arrival="475.00" arrivalLane="Y_0" arrivalPos="20.00" arrivalSpeed="17.52" duration="436.00" routeLength="6528.21" waitingTime="6.00" waitingCount="2" stopTime="0.00" timeLoss="109.19" rerouteNo="0" devices="tripinfo_C_19" vType="typeC" speedFactor="1.08" vaporized=""/>
    <tripinfo id="A_19" depart="38.00" departLane="incoming_2" departPos="4.60" departSpeed="0.00" departDelay="8.00" arrival="476.50" arrivalLane="X_0" arrivalPos="20.00" arrivalSpeed="17.88" duration="438.50" routeLength="6528.74" waitingTime="7.00" waitingCount="1" stopTime="0.00" timeLoss="111.74" rerouteNo="0" devices="tripinfo_A_19" vType="typeA" speedFactor="1.02" vaporized=""/>
    <tripinfo id="C_20" depart="41.00" departLane="incoming_0" departPos="4.60" departSpeed="0.00" departDelay="5.00" arrival="477.50" arrivalLane="Y_0" arrivalPos="20.00" arrivalSpeed="17.54" duration="436.50" routeLength="6528.21" waitingTime="3.50" waitingCount="4" stopTime="0.00" timeLoss="105.38" rerouteNo="0" devices="tripinfo_C_20" vType="typeC" speedFactor="0.99" vaporized=""/>
    <tripinfo id="A_20" depart="40.00" departLane="incoming_2" departPos="4.60" departSpeed="0.00" departDelay="8.00" arrival="479.00" arrivalLane="X_0" arrivalPos="20.00" arrivalSpeed="17.63" duration="439.00" routeLength="6528.74" waitingTime="4.50" waitingCount="3" stopTime="0.00" timeLoss="112.41" rerouteNo="0" devices="tripinfo_A_20" vType="typeA" speedFactor="1.00" vaporized=""/>
    <tripinfo id="C_21" depart="43.00" departLane="incoming_0" departPos="4.60" departSpeed="0.00" departDelay="3.00" arrival="480.00" arrivalLane="Y_0" arrivalPos="20.00" arrivalSpeed="17.47" duration="437.00" routeLength="6528.21" waitingTime="2.00" waitingCount="2" stopTime="0.00" timeLoss="110.34" rerouteNo="0" devices="tripinfo_C_21" vType="typeC" speedFactor="1.02" vaporized=""/>
    <tripinfo id="A_21" depart="42.00" departLane="incoming_2" departPos="4.60" departSpeed="0.00" departDelay="7.00" arrival="481.50" arrivalLane="X_0" arrivalPos="20.00" arrivalSpeed="17.89" duration="439.50" routeLength="6528.74" waitingTime="3.50" waitingCount="3" stopTime="0.00" timeLoss="112.88" rerouteNo="0" devices="tripinfo_A_21" vType="typeA" speedFactor="1.12" vaporized=""/>
    <tripinfo id="C_22" depart="45.00" departLane="incoming_0" departPos="4.60" departSpeed="0.00" departDelay="3.00" arrival="482.00" arrivalLane="Y_0" arrivalPos="20.00" arrivalSpeed="17.40" duration="437.00" routeLength="6528.21" waitingTime="1.50" waitingCount="3" stopTime="0.00" timeLoss="89.76" rerouteNo="0" devices="tripinfo_C_22" vType="typeC" speedFactor="0.94" vaporized=""/>
    <tripinfo id="A_22" depart="44.00" departLane="incoming_2" departPos="4.60" departSpeed="0.00" departDelay="7.00" arrival="484.00" arrivalLane="X_0" arrivalPos="20.00" arrivalSpeed="17.36" duration="440.00" routeLength="6528.74" waitingTime="2.50" waitingCount="5" stopTime="0.00" timeLoss="91.74" rerouteNo="0" devices="tripinfo_A_22" vType="typeA" speedFactor="0.94" vaporized=""/>
    <tripinfo id="C_23" depart="47.00" departLane="incoming_0" departPos="4.60" departSpeed="0.00" departDelay="3.00" arrival="485.00" arrivalLane="Y_0" arrivalPos="20.00" arrivalSpeed="17.84" duration="438.00" routeLength="6528.21" waitingTime="0.50" waitingCount="1" stopTime="0.00" timeLoss="111.38" rerouteNo="0" devices="tripinfo_C_23" vType="typeC" speedFactor="1.03" vaporized=""/>
    <tripinfo id="A_23" depart="46.00" departLane="incoming_2" departPos="4.60" departSpeed="0.00" departDelay="8.00" arrival="487.00" arrivalLane="X_0" arrivalPos="20.00" arrivalSpeed="17.65" duration="441.00" routeLength="6528.74" waitingTime="1.50" waitingCount="3" stopTime="0.00" timeLoss="70.67" rerouteNo="0" devices="tripinfo_A_23" vType="typeA" speedFactor="0.88" vaporized=""/>
    <tripinfo id="C_24" depart="49.00" departLane="incoming_0" departPos="4.60" departSpeed="0.00" departDelay="3.00" arrival="488.00" arrivalLane="Y_0" arrivalPos="20.00" arrivalSpeed="18.55" duration="439.00" routeLength="6528.21" waitingTime="0.50" waitingCount="1" stopTime="0.00" timeLoss="111.54" rerouteNo="0" devices="tripinfo_C_24" vType="typeC" speedFactor="1.00" vaporized=""/>
    <tripinfo id="A_24" depart="48.00" departLane="incoming_2" departPos="4.60" departSpeed="0.00" departDelay="9.00" arrival="490.00" arrivalLane="X_0" arrivalPos="20.00" arrivalSpeed="18.29" duration="442.00" routeLength="6528.74" waitingTime="0.50" waitingCount="1" stopTime="0.00" timeLoss="84.60" rerouteNo="0" devices="tripinfo_A_24" vType="typeA" speedFactor="0.91" vaporized=""/>
    <tripinfo id="B_25" depart="50.00" departLane="incoming_1" departPos="4.60" departSpeed="0.00" departDelay="10.00" arrival="491.50" arrivalLane="Y_0" arrivalPos="20.00" arrivalSpeed="17.89" duration="441.50" routeLength="6528.21" waitingTime="3.00" waitingCount="1" stopTime="0.00" timeLoss="114.70" rerouteNo="1" devices="tripinfo_B_25" vType="typeB" speedFactor="1.04" vaporized=""/>
    <tripinfo id="A_25" depart="50.00" departLane="incoming_2" departPos="4.60" departSpeed="0.00" departDelay="7.00" arrival="492.00" arrivalLane="X_0" arrivalPos="20.00" arrivalSpeed="17.46" duration="442.00" routeLength="6528.74" waitingTime="0.00" waitingCount="0" stopTime="0.00" timeLoss="115.52" rerouteNo="0" devices="tripinfo_A_25" vType="typeA" speedFactor="1.06" vaporized=""/>