<?xml version="1.0" encoding="UTF-8"?>

<!-- generated on 2022-01-17 03:21:07 by Eclipse SUMO GUI Version v1_11_0+0661-437598ee861
<configuration xmlns:xsi="http://www.w3.org/2001/XMLSchema-instance" xsi:noNamespaceSchemaLocation="http://sumo.dlr.de/xsd/sumoConfiguration.xsd">

    <input>
        <net-file value="sumo_data/laneMerging2.net.xml"/>
        <route-files value="sumo_data/laneMerging.rou.xml"/>
        <additional-files value="sumo_data/laneMerging.add.xml"/>
    </input>

    <output>
        <tripinfo-output value="sumo_data/tripinfo_dp.xml"/>
    </output>

    <report>
        <no-warnings value="true"/>
        <duration-log.disable value="true"/>
        <no-step-log value="true"/>
    </report>

    <traci_server>
        <remote-port value="56710"/>
    </traci_server>

    <gui_only>
        <gui-settings-file value="sumo_data/laneMerging.view.xml"/>
        <start value="true"/>
    </gui_only>

</configuration>
-->

<tripinfos xmlns:xsi="http://www.w3.org/2001/XMLSchema-instance" xsi:noNamespaceSchemaLocation="http://sumo.dlr.de/xsd/tripinfo_file.xsd">
    <tripinfo id="A_1" depart="6.00" departLane="A_0" departPos="2.10" departSpeed="7.39" departDelay="0.00" arrival="410.00" arrivalLane="X_0" arrivalPos="25.59" arrivalSpeed="13.69" duration="404.00" routeLength="6035.74" waitingTime="0.00" waitingCount="0" stopTime="0.00" timeLoss="1.80" rerouteNo="0" devices="tripinfo_A_1" vType="typeA" speedFactor="1.08" vaporized=""/>
    <tripinfo id="C_1" depart="2.00" departLane="C_0" departPos="2.10" departSpeed="13.12" departDelay="0.00" arrival="414.00" arrivalLane="Y_0" arrivalPos="26.86" arrivalSpeed="11.58" duration="412.00" routeLength="6035.84" waitingTime="0.00" waitingCount="0" stopTime="0.00" timeLoss="1.57" rerouteNo="0" devices="tripinfo_C_1" vType="typeC" speedFactor="1.06" vaporized=""/>
    <tripinfo id="B_1" depart="4.00" departLane="B_0" departPos="2.10" departSpeed="9.29" departDelay="0.00" arrival="468.00" arrivalLane="Y_0" arrivalPos="26.86" arrivalSpeed="13.03" duration="464.00" routeLength="6037.61" waitingTime="0.00" waitingCount="0" stopTime="0.00" timeLoss="0.29" rerouteNo="1" devices="tripinfo_B_1" vType="typeB" speedFactor="0.94" vaporized=""/>
    <tripinfo id="C_2" depart="4.00" departLane="C_0" departPos="2.10" departSpeed="0.64" departDelay="0.00" arrival="475.00" arrivalLane="Y_0" arrivalPos="26.86" arrivalSpeed="10.50" duration="471.00" routeLength="6035.84" waitingTime="31.00" waitingCount="1" stopTime="0.00" timeLoss="40.25" rerouteNo="0" devices="tripinfo_C_2" vType="typeC" speedFactor="1.01" vaporized=""/>
    <tripinfo id="C_3" depart="8.00" departLane="C_0" departPos="2.10" departSpeed="8.19" departDelay="0.00" arrival="477.00" arrivalLane="Y_0" arrivalPos="26.86" arrivalSpeed="12.00" duration="469.00" routeLength="6035.84" waitingTime="31.00" waitingCount="1" stopTime="0.00" timeLoss="52.24" rerouteNo="0" devices="tripinfo_C_3" vType="typeC" speedFactor="1.05" vaporized=""/>
    <tripinfo id="C_4" depart="9.00" departLane="C_0" departPos="2.10" departSpeed="7.10" departDelay="0.00" arrival="478.00" arrivalLane="Y_0" arrivalPos="26.86" arrivalSpeed="10.59" duration="469.00" routeLength="6035.84" waitingTime="0.00" waitingCount="0" stopTime="0.00" timeLoss="4.88" rerouteNo="0" devices="tripinfo_C_4" vType="typeC" speedFactor="0.94" vaporized=""/>
    <tripinfo id="C_5" depart="12.00" departLane="C_0" departPos="2.10" departSpeed="10.20" departDelay="0.00" arrival="480.00" arrivalLane="Y_0" arrivalPos="26.86" arrivalSpeed="12.44" duration="468.00" routeLength="6035.84" waitingTime="0.00" waitingCount="0" stopTime="0.00" timeLoss="68.86" rerouteNo="0" devices="tripinfo_C_5" vType="typeC" speedFactor="1.09" vaporized=""/>
    <tripinfo id="C_6" depart="16.00" departLane="C_0" departPos="2.10" departSpeed="6.65" departDelay="0.00" arrival="482.00" arrivalLane="Y_0" arrivalPos="26.86" arrivalSpeed="12.22" duration="466.00" routeLength="6035.84" waitingTime="0.00" waitingCount="0" stopTime="0.00" timeLoss="41.89" rerouteNo="0" devices="tripinfo_C_6" vType="typeC" speedFactor="1.03" vaporized=""/>
    <tripinfo id="B_2" depart="7.00" departLane="B_0" departPos="2.10" departSpeed="8.44" departDelay="0.00" arrival="488.00" arrivalLane="Y_0" arrivalPos="26.86" arrivalSpeed="10.50" duration="481.00" routeLength="6037.61" waitingTime="14.00" waitingCount="1" stopTime="0.00" timeLoss="58.99" rerouteNo="1" devices="tripinfo_B_2" vType="typeB" speedFactor="1.03" vaporized=""/>
    <tripinfo id="C_7" depart="23.00" departLane="C_0" departPos="2.10" departSpeed="10.68" departDelay="0.00" arrival="520.00" arrivalLane="Y_0" arrivalPos="26.86" arrivalSpeed="11.61" duration="497.00" routeLength="6035.84" waitingTime="0.00" waitingCount="0" stopTime="0.00" timeLoss="1.36" rerouteNo="0" devices="tripinfo_C_7" vType="typeC" speedFactor="0.88" vaporized=""/>
    <tripinfo id="B_3" depart="11.00" departLane="B_0" departPos="2.10" departSpeed="0.07" departDelay="0.00" arrival="524.00" arrivalLane="Y_0" arrivalPos="26.86" arrivalSpeed="11.90" duration="513.00" routeLength="6037.61" waitingTime="0.00" waitingCount="0" stopTime="0.00" timeLoss="5.27" rerouteNo="1" devices="tripinfo_B_3" vType="typeB" speedFactor="0.86" vaporized=""/>
    <tripinfo id="B_4" depart="18.00" departLane="B_0" departPos="2.10" departSpeed="6.58" departDelay="0.00" arrival="526.00" arrivalLane="Y_0" arrivalPos="26.86" arrivalSpeed="12.36" duration="508.00" routeLength="6037.61" waitingTime="0.00" waitingCount="0" stopTime="0.00" timeLoss="92.52" rerouteNo="1" devices="tripinfo_B_4" vType="typeB" speedFactor="1.05" vaporized=""/>
    <tripinfo id="B_5" depart="21.00" departLane="B_0" departPos="2.10" departSpeed="3.64" departDelay="0.00" arrival="528.00" arrivalLane="Y_0" arrivalPos="26.86" arrivalSpeed="12.18" duration="507.00" routeLength="6037.61" waitingTime="0.00" waitingCount="0" stopTime="0.00" timeLoss="68.13" rerouteNo="1" devices="tripinfo_B_5" vType="typeB" speedFactor="0.99" vaporized=""/>
    <tripinfo id="B_6" depart="32.00" departLane="B_0" departPos="2.10" departSpeed="4.21" departDelay="0.00" arrival="530.00" arrivalLane="Y_0" arrivalPos="26.86" arrivalSpeed="12.09" duration="498.00" routeLength="6037.61" waitingTime="0.00" waitingCount="0" stopTime="0.00" timeLoss="35.96" rerouteNo="1" devices="tripinfo_B_6" vType="typeB" speedFactor="0.94" vaporized=""/>
    <tripinfo id="B_7" depart="36.00" departLane="B_0" departPos="2.10" departSpeed="8.89" departDelay="0.00" arrival="532.00" arrivalLane="Y_0" arrivalPos="26.86" arrivalSpeed="12.05" duration="496.00" routeLength="6037.61" waitingTime="0.00" waitingCount="0" stopTime="0.00" timeLoss="31.43" rerouteNo="1" devices="tripinfo_B_7" vType="typeB" speedFactor="0.94" vaporized=""/>
    <tripinfo id="B_8" depart="57.00" departLane="B_0" departPos="2.10" departSpeed="8.58" departDelay="0.00" arrival="534.00" arrivalLane="Y_0" arrivalPos="26.86" arrivalSpeed="12.02" duration="477.00" routeLength="6037.61" waitingTime="0.00" waitingCount="0" stopTime="0.00" timeLoss="30.92" rerouteNo="1" devices="tripinfo_B_8" vType="typeB" speedFactor="0.98" vaporized=""/>
    <tripinfo id="A_2" depart="8.00" departLane="A_0" departPos="2.10" departSpeed="0.50" departDelay="0.00" arrival="536.00" arrivalLane="X_0" arrivalPos="25.59" arrivalSpeed="11.54" duration="528.00" routeLength="6035.74" waitingTime="0.00" waitingCount="0" stopTime="0.00" timeLoss="3.87" rerouteNo="0" devices="tripinfo_A_2" vType="typeA" speedFactor="0.83" vaporized=""/>
    <tripinfo id="A_3" depart="10.00" departLane="A_0" departPos="2.10" departSpeed="2.25" departDelay="1.00" arrival="539.00" arrivalLane="X_0" arrivalPos="25.59" arrivalSpeed="12.25" duration="529.00" routeLength="6035.74" waitingTime="0.00" waitingCount="0" stopTime="0.00" timeLoss="37.22" rerouteNo="0" devices="tripinfo_A_3" vType="typeA" speedFactor="0.89" vaporized=""/>
    <tripinfo id="A_4" depart="19.00" departLane="A_0" departPos="2.10" departSpeed="8.83" departDelay="0.00" arrival="540.00" arrivalLane="X_0" arrivalPos="25.59" arrivalSpeed="11.39" duration="521.00" routeLength="6035.74" waitingTime="0.00" waitingCount="0" stopTime="0.00" timeLoss="133.56" rerouteNo="0" devices="tripinfo_A_4" vType="typeA" speedFactor="1.12" vaporized=""/>
    <tripinfo id="C_8" depart="50.00" departLane="C_0" departPos="2.10" departSpeed="0.74" departDelay="0.00" arrival="540.00" arrivalLane="Y_0" arrivalPos="26.86" arrivalSpeed="10.50" duration="490.00" routeLength="6035.84" waitingTime="15.00" waitingCount="1" stopTime="0.00" timeLoss="114.22" rerouteNo="0" devices="tripinfo_C_8" vType="typeC" speedFactor="1.16" vaporized=""/>
    <tripinfo id="A_5" depart="22.00" departLane="A_0" departPos="2.10" departSpeed="0.78" departDelay="0.00" arrival="542.00" arrivalLane="X_0" arrivalPos="25.59" arrivalSpeed="11.70" duration="520.00" routeLength="6035.74" waitingTime="0.00" waitingCount="0" stopTime="0.00" timeLoss="50.48" rerouteNo="0" devices="tripinfo_A_5" vType="typeA" speedFactor="0.93" vaporized=""/>
    <tripinfo id="A_6" depart="55.00" departLane="A_0" departPos="2.10" departSpeed="7.25" departDelay="0.00" arrival="544.00" arrivalLane="X_0" arrivalPos="25.59" arrivalSpeed="11.85" duration="489.00" routeLength="6035.74" waitingTime="0.00" waitingCount="0" stopTime="0.00" timeLoss="61.53" rerouteNo="0" devices="tripinfo_A_6" vType="typeA" speedFactor="1.02" vaporized=""/>
    <tripinfo id="A_7" depart="57.00" departLane="A_0" departPos="2.10" departSpeed="4.31" departDelay="0.00" arrival="546.00" arrivalLane="X_0" arrivalPos="25.59" arrivalSpeed="11.92" duration="489.00" routeLength="6035.74" waitingTime="0.00" waitingCount="0" stopTime="0.00" timeLoss="58.13" rerouteNo="0" devices="tripinfo_A_7" vType="typeA" speedFactor="1.01" vaporized=""/>
    <tripinfo id="C_9" depart="57.00" departLane="C_0" departPos="2.10" departSpeed="11.60" departDelay="0.00" arrival="548.00" arrivalLane="Y_0" arrivalPos="26.86" arrivalSpeed="11.70" duration="491.00" routeLength="6035.84" waitingTime="0.00" waitingCount="0" stopTime="0.00" timeLoss="1.09" rerouteNo="0" devices="tripinfo_C_9" vType="typeC" speedFactor="0.89" vaporized=""/>
    <tripinfo id="B_9" depart="73.00" departLane="B_0" departPos="2.10" departSpeed="7.17" departDelay="0.00" arrival="552.00" arrivalLane="X_0" arrivalPos="25.59" arrivalSpeed="10.50" duration="479.00" routeLength="6036.58" waitingTime="12.00" waitingCount="1" stopTime="0.00" timeLoss="20.79" rerouteNo="1" devices="tripinfo_B_9" vType="typeB" speedFactor="0.95" vaporized=""/>
    <tripinfo id="C_10" depart="66.00" departLane="C_0" departPos="2.10" departSpeed="10.76" departDelay="0.00" arrival="566.00" arrivalLane="Y_0" arrivalPos="26.86" arrivalSpeed="11.56" duration="500.00" routeLength="6035.84" waitingTime="0.00" waitingCount="0" stopTime="0.00" timeLoss="1.27" rerouteNo="0" devices="tripinfo_C_10" vType="typeC" speedFactor="0.87" vaporized=""/>
    <tripinfo id="B_10" depart="100.00" departLane="B_0" departPos="2.10" departSpeed="0.42" departDelay="0.00" arrival="571.00" arrivalLane="X_0" arrivalPos="25.59" arrivalSpeed="12.94" duration="471.00" routeLength="6036.58" waitingTime="0.00" waitingCount="0" stopTime="0.00" timeLoss="3.57" rerouteNo="1" devices="tripinfo_B_10" vType="typeB" speedFactor="0.93" vaporized=""/>
    <tripinfo id="A_8" depart="62.00" departLane="A_0" departPos="2.10" departSpeed="9.45" departDelay="0.00" arrival="590.00" arrivalLane="X_0" arrivalPos="25.59" arrivalSpeed="11.47" duration="528.00" routeLength="6035.74" waitingTime="0.00" waitingCount="0" stopTime="0.00" timeLoss="0.64" rerouteNo="0" devices="tripinfo_A_8" vType="typeA" speedFactor="0.83" vaporized=""/>
    <tripinfo id="A_9" depart="68.00" departLane="A_0" departPos="2.10" departSpeed="5.05" departDelay="0.00" arrival="592.00" arrivalLane="X_0" arrivalPos="25.59" arrivalSpeed="11.63" duration="524.00" routeLength="6035.74" waitingTime="0.00" waitingCount="0" stopTime="0.00" timeLoss="49.59" rerouteNo="0" devices="tripinfo_A_9" vType="typeA" speedFactor="0.92" vaporized=""/>
    <tripinfo id="A_10" depart="75.00" departLane="A_0" departPos="2.10" departSpeed="3.72" departDelay="0.00" arrival="594.00" arrivalLane="X_0" arrivalPos="25.59" arrivalSpeed="12.04" duration="519.00" routeLength="6035.74" waitingTime="0.00" waitingCount="0" stopTime="0.00" timeLoss="134.41" rerouteNo="0" devices="tripinfo_A_10" vType="typeA" speedFactor="1.13" vaporized=""/>
</tripinfos>
