<?xml version="1.0" encoding="UTF-8"?>

<!-- generated on 2022-01-03 07:40:28 by Eclipse SUMO GUI Version 1.9.2
<configuration xmlns:xsi="http://www.w3.org/2001/XMLSchema-instance" xsi:noNamespaceSchemaLocation="http://sumo.dlr.de/xsd/sumoConfiguration.xsd">

    <input>
        <net-file value="sumo_data/laneMerging2.net.xml"/>
        <route-files value="sumo_data/laneMerging.rou.xml"/>
        <additional-files value="sumo_data/laneMerging.add.xml"/>
    </input>

    <output>
        <tripinfo-output value="sumo_data/tripinfo_dp.xml"/>
    </output>

    <report>
        <no-warnings value="true"/>
        <duration-log.disable value="true"/>
        <no-step-log value="true"/>
    </report>

    <traci_server>
        <remote-port value="57958"/>
    </traci_server>

    <gui_only>
        <gui-settings-file value="sumo_data/laneMerging.view.xml"/>
        <start value="true"/>
    </gui_only>

</configuration>
-->

<tripinfos xmlns:xsi="http://www.w3.org/2001/XMLSchema-instance" xsi:noNamespaceSchemaLocation="http://sumo.dlr.de/xsd/tripinfo_file.xsd">
    <tripinfo id="B_1" depart="4.00" departLane="B_0" departPos="2.10" departSpeed="7.39" departDelay="0.00" arrival="407.00" arrivalLane="X_0" arrivalPos="25.59" arrivalSpeed="15.04" duration="403.00" routeLength="6036.58" waitingTime="0.00" waitingCount="0" stopTime="0.00" timeLoss="1.05" rerouteNo="1" devices="tripinfo_B_1" vType="typeB" speedFactor="1.08" vaporized=""/>
    <tripinfo id="C_1" depart="6.00" departLane="C_0" departPos="2.10" departSpeed="8.44" departDelay="0.00" arrival="431.00" arrivalLane="Y_0" arrivalPos="26.86" arrivalSpeed="12.84" duration="425.00" routeLength="6035.84" waitingTime="0.00" waitingCount="0" stopTime="0.00" timeLoss="2.06" rerouteNo="0" devices="tripinfo_C_1" vType="typeC" speedFactor="1.03" vaporized=""/>
    <tripinfo id="C_2" depart="8.00" departLane="C_0" departPos="2.10" departSpeed="10.80" departDelay="0.00" arrival="433.00" arrivalLane="Y_0" arrivalPos="26.86" arrivalSpeed="11.46" duration="425.00" routeLength="6035.84" waitingTime="0.00" waitingCount="0" stopTime="0.00" timeLoss="8.68" rerouteNo="0" devices="tripinfo_C_2" vType="typeC" speedFactor="1.05" vaporized=""/>
    <tripinfo id="C_3" depart="28.00" departLane="C_0" departPos="2.10" departSpeed="9.59" departDelay="0.00" arrival="454.00" arrivalLane="Y_0" arrivalPos="26.86" arrivalSpeed="11.30" duration="426.00" routeLength="6035.84" waitingTime="0.00" waitingCount="0" stopTime="0.00" timeLoss="1.70" rerouteNo="0" devices="tripinfo_C_3" vType="typeC" speedFactor="1.03" vaporized=""/>
    <tripinfo id="C_4" depart="31.00" departLane="C_0" departPos="2.10" departSpeed="7.05" departDelay="0.00" arrival="456.00" arrivalLane="Y_0" arrivalPos="26.86" arrivalSpeed="13.09" duration="425.00" routeLength="6035.84" waitingTime="0.00" waitingCount="0" stopTime="0.00" timeLoss="37.11" rerouteNo="0" devices="tripinfo_C_4" vType="typeC" speedFactor="1.12" vaporized=""/>
    <tripinfo id="B_2" depart="10.00" departLane="B_0" departPos="2.10" departSpeed="3.05" departDelay="0.00" arrival="503.00" arrivalLane="X_0" arrivalPos="25.59" arrivalSpeed="12.31" duration="493.00" routeLength="6036.58" waitingTime="0.00" waitingCount="0" stopTime="0.00" timeLoss="1.96" rerouteNo="1" devices="tripinfo_B_2" vType="typeB" speedFactor="0.89" vaporized=""/>
    <tripinfo id="C_5" depart="47.00" departLane="C_0" departPos="2.10" departSpeed="0.74" departDelay="0.00" arrival="547.00" arrivalLane="Y_0" arrivalPos="26.86" arrivalSpeed="11.61" duration="500.00" routeLength="6035.84" waitingTime="0.00" waitingCount="0" stopTime="0.00" timeLoss="4.41" rerouteNo="0" devices="tripinfo_C_5" vType="typeC" speedFactor="0.88" vaporized=""/>
    <tripinfo id="C_6" depart="51.00" departLane="C_0" departPos="2.10" departSpeed="8.33" departDelay="0.00" arrival="550.00" arrivalLane="Y_0" arrivalPos="26.86" arrivalSpeed="12.12" duration="499.00" routeLength="6035.84" waitingTime="0.00" waitingCount="0" stopTime="0.00" timeLoss="35.88" rerouteNo="0" devices="tripinfo_C_6" vType="typeC" speedFactor="0.94" vaporized=""/>
    <tripinfo id="B_3" depart="17.00" departLane="B_0" departPos="2.10" departSpeed="8.87" departDelay="0.00" arrival="555.00" arrivalLane="Y_0" arrivalPos="26.86" arrivalSpeed="10.50" duration="538.00" routeLength="6037.61" waitingTime="25.00" waitingCount="1" stopTime="0.00" timeLoss="30.60" rerouteNo="1" devices="tripinfo_B_3" vType="typeB" speedFactor="0.86" vaporized=""/>
    <tripinfo id="B_4" depart="22.00" departLane="B_0" departPos="2.10" departSpeed="0.09" departDelay="0.00" arrival="557.00" arrivalLane="X_0" arrivalPos="25.59" arrivalSpeed="12.00" duration="535.00" routeLength="6036.58" waitingTime="25.00" waitingCount="1" stopTime="0.00" timeLoss="135.88" rerouteNo="1" devices="tripinfo_B_4" vType="typeB" speedFactor="1.09" vaporized=""/>
    <tripinfo id="C_7" depart="53.00" departLane="C_0" departPos="2.10" departSpeed="10.02" departDelay="0.00" arrival="559.00" arrivalLane="Y_0" arrivalPos="26.86" arrivalSpeed="10.50" duration="506.00" routeLength="6035.84" waitingTime="5.00" waitingCount="1" stopTime="0.00" timeLoss="130.22" rerouteNo="0" devices="tripinfo_C_7" vType="typeC" speedFactor="1.16" vaporized=""/>
    <tripinfo id="C_8" depart="55.00" departLane="C_0" departPos="2.10" departSpeed="0.65" departDelay="0.00" arrival="561.00" arrivalLane="Y_0" arrivalPos="26.86" arrivalSpeed="12.00" duration="506.00" routeLength="6035.84" waitingTime="5.00" waitingCount="1" stopTime="0.00" timeLoss="77.91" rerouteNo="0" devices="tripinfo_C_8" vType="typeC" speedFactor="1.02" vaporized=""/>
    <tripinfo id="C_9" depart="57.00" departLane="C_0" departPos="2.10" departSpeed="2.48" departDelay="1.00" arrival="562.00" arrivalLane="Y_0" arrivalPos="26.86" arrivalSpeed="11.17" duration="505.00" routeLength="6035.84" waitingTime="5.00" waitingCount="1" stopTime="0.00" timeLoss="74.11" rerouteNo="0" devices="tripinfo_C_9" vType="typeC" speedFactor="1.01" vaporized=""/>
    <tripinfo id="C_10" depart="61.00" departLane="C_0" departPos="2.10" departSpeed="8.67" departDelay="0.00" arrival="565.00" arrivalLane="Y_0" arrivalPos="26.86" arrivalSpeed="11.70" duration="504.00" routeLength="6035.84" waitingTime="5.00" waitingCount="1" stopTime="0.00" timeLoss="13.94" rerouteNo="0" devices="tripinfo_C_10" vType="typeC" speedFactor="0.89" vaporized=""/>
    <tripinfo id="C_11" depart="64.00" departLane="C_0" departPos="2.10" departSpeed="9.45" departDelay="0.00" arrival="593.00" arrivalLane="Y_0" arrivalPos="26.86" arrivalSpeed="11.18" duration="529.00" routeLength="6035.84" waitingTime="0.00" waitingCount="0" stopTime="0.00" timeLoss="1.24" rerouteNo="0" devices="tripinfo_C_11" vType="typeC" speedFactor="0.83" vaporized=""/>
    <tripinfo id="C_12" depart="65.00" departLane="C_0" departPos="2.10" departSpeed="10.20" departDelay="0.00" arrival="595.00" arrivalLane="Y_0" arrivalPos="26.86" arrivalSpeed="11.56" duration="530.00" routeLength="6035.84" waitingTime="0.00" waitingCount="0" stopTime="0.00" timeLoss="30.37" rerouteNo="0" devices="tripinfo_C_12" vType="typeC" speedFactor="0.87" vaporized=""/>
    <tripinfo id="C_13" depart="70.00" departLane="C_0" departPos="2.10" departSpeed="5.05" departDelay="0.00" arrival="597.00" arrivalLane="Y_0" arrivalPos="26.86" arrivalSpeed="11.92" duration="527.00" routeLength="6035.84" waitingTime="0.00" waitingCount="0" stopTime="0.00" timeLoss="51.56" rerouteNo="0" devices="tripinfo_C_13" vType="typeC" speedFactor="0.92" vaporized=""/>
    <tripinfo id="C_14" depart="82.00" departLane="C_0" departPos="2.10" departSpeed="2.22" departDelay="0.00" arrival="598.00" arrivalLane="Y_0" arrivalPos="26.86" arrivalSpeed="12.09" duration="516.00" routeLength="6035.84" waitingTime="0.00" waitingCount="0" stopTime="0.00" timeLoss="83.02" rerouteNo="0" devices="tripinfo_C_14" vType="typeC" speedFactor="1.01" vaporized=""/>
    <tripinfo id="C_15" depart="103.00" departLane="C_0" departPos="2.10" departSpeed="4.48" departDelay="0.00" arrival="600.00" arrivalLane="Y_0" arrivalPos="26.86" arrivalSpeed="10.87" duration="497.00" routeLength="6035.84" waitingTime="0.00" waitingCount="0" stopTime="0.00" timeLoss="49.69" rerouteNo="0" devices="tripinfo_C_15" vType="typeC" speedFactor="0.97" vaporized=""/>
    <tripinfo id="C_16" depart="104.00" departLane="C_0" departPos="2.10" departSpeed="2.12" departDelay="0.00" arrival="602.00" arrivalLane="Y_0" arrivalPos="26.86" arrivalSpeed="12.02" duration="498.00" routeLength="6035.84" waitingTime="0.00" waitingCount="0" stopTime="0.00" timeLoss="128.76" rerouteNo="0" devices="tripinfo_C_16" vType="typeC" speedFactor="1.18" vaporized=""/>
    <tripinfo id="C_17" depart="107.00" departLane="C_0" departPos="2.10" departSpeed="5.15" departDelay="0.00" arrival="605.00" arrivalLane="Y_0" arrivalPos="26.86" arrivalSpeed="11.79" duration="498.00" routeLength="6035.84" waitingTime="0.00" waitingCount="0" stopTime="0.00" timeLoss="13.84" rerouteNo="0" devices="tripinfo_C_17" vType="typeC" speedFactor="0.90" vaporized=""/>
    <tripinfo id="B_5" depart="31.00" departLane="B_0" departPos="2.10" departSpeed="6.78" departDelay="0.00" arrival="610.00" arrivalLane="Y_0" arrivalPos="26.86" arrivalSpeed="10.50" duration="579.00" routeLength="6037.61" waitingTime="74.00" waitingCount="2" stopTime="0.00" timeLoss="163.74" rerouteNo="1" devices="tripinfo_B_5" vType="typeB" speedFactor="1.05" vaporized=""/>
    <tripinfo id="B_6" depart="34.00" departLane="B_0" departPos="2.10" departSpeed="7.80" departDelay="0.00" arrival="612.00" arrivalLane="X_0" arrivalPos="25.59" arrivalSpeed="12.00" duration="578.00" routeLength="6036.58" waitingTime="74.00" waitingCount="2" stopTime="0.00" timeLoss="138.81" rerouteNo="1" devices="tripinfo_B_6" vType="typeB" speedFactor="0.99" vaporized=""/>
    <tripinfo id="C_18" depart="119.00" departLane="C_0" departPos="2.10" departSpeed="3.65" departDelay="0.00" arrival="614.00" arrivalLane="Y_0" arrivalPos="26.86" arrivalSpeed="10.50" duration="495.00" routeLength="6035.84" waitingTime="5.00" waitingCount="1" stopTime="0.00" timeLoss="94.99" rerouteNo="0" devices="tripinfo_C_18" vType="typeC" speedFactor="1.09" vaporized=""/>
    <tripinfo id="C_19" depart="132.00" departLane="C_0" departPos="2.10" departSpeed="8.45" departDelay="0.00" arrival="646.00" arrivalLane="Y_0" arrivalPos="26.86" arrivalSpeed="11.38" duration="514.00" routeLength="6035.84" waitingTime="0.00" waitingCount="0" stopTime="0.00" timeLoss="1.42" rerouteNo="0" devices="tripinfo_C_19" vType="typeC" speedFactor="0.85" vaporized=""/>
    <tripinfo id="C_20" depart="143.00" departLane="C_0" departPos="2.10" departSpeed="6.81" departDelay="0.00" arrival="647.00" arrivalLane="Y_0" arrivalPos="26.86" arrivalSpeed="11.06" duration="504.00" routeLength="6035.84" waitingTime="0.00" waitingCount="0" stopTime="0.00" timeLoss="66.88" rerouteNo="0" devices="tripinfo_C_20" vType="typeC" speedFactor="1.00" vaporized=""/>
    <tripinfo id="C_21" depart="166.00" departLane="C_0" departPos="2.10" departSpeed="2.47" departDelay="0.00" arrival="649.00" arrivalLane="Y_0" arrivalPos="26.86" arrivalSpeed="12.31" duration="483.00" routeLength="6035.84" waitingTime="0.00" waitingCount="0" stopTime="0.00" timeLoss="34.03" rerouteNo="0" devices="tripinfo_C_21" vType="typeC" speedFactor="0.97" vaporized=""/>
    <tripinfo id="C_22" depart="178.00" departLane="C_0" departPos="2.10" departSpeed="2.25" departDelay="0.00" arrival="662.00" arrivalLane="Y_0" arrivalPos="26.86" arrivalSpeed="11.84" duration="484.00" routeLength="6035.84" waitingTime="0.00" waitingCount="0" stopTime="0.00" timeLoss="3.77" rerouteNo="0" devices="tripinfo_C_22" vType="typeC" speedFactor="0.91" vaporized=""/>
    <tripinfo id="C_23" depart="188.00" departLane="C_0" departPos="2.10" departSpeed="4.53" departDelay="0.00" arrival="665.00" arrivalLane="Y_0" arrivalPos="26.86" arrivalSpeed="12.25" duration="477.00" routeLength="6035.84" waitingTime="0.00" waitingCount="0" stopTime="0.00" timeLoss="57.79" rerouteNo="0" devices="tripinfo_C_23" vType="typeC" speedFactor="1.04" vaporized=""/>
    <tripinfo id="C_24" depart="195.00" departLane="C_0" departPos="2.10" departSpeed="2.71" departDelay="0.00" arrival="667.00" arrivalLane="Y_0" arrivalPos="26.86" arrivalSpeed="12.11" duration="472.00" routeLength="6035.84" waitingTime="0.00" waitingCount="0" stopTime="0.00" timeLoss="8.17" rerouteNo="0" devices="tripinfo_C_24" vType="typeC" speedFactor="0.94" vaporized=""/>
    <tripinfo id="C_25" depart="199.00" departLane="C_0" departPos="2.10" departSpeed="2.65" departDelay="0.00" arrival="668.00" arrivalLane="Y_0" arrivalPos="26.86" arrivalSpeed="11.54" duration="469.00" routeLength="6035.84" waitingTime="0.00" waitingCount="0" stopTime="0.00" timeLoss="56.54" rerouteNo="0" devices="tripinfo_C_25" vType="typeC" speedFactor="1.06" vaporized=""/>
    <tripinfo id="C_26" depart="204.00" departLane="C_0" departPos="2.10" departSpeed="1.09" departDelay="0.00" arrival="670.00" arrivalLane="Y_0" arrivalPos="26.86" arrivalSpeed="10.97" duration="466.00" routeLength="6035.84" waitingTime="0.00" waitingCount="0" stopTime="0.00" timeLoss="24.00" rerouteNo="0" devices="tripinfo_C_26" vType="typeC" speedFactor="0.98" vaporized=""/>
    <tripinfo id="C_27" depart="210.00" departLane="C_0" departPos="2.10" departSpeed="4.06" departDelay="0.00" arrival="672.00" arrivalLane="Y_0" arrivalPos="26.86" arrivalSpeed="11.15" duration="462.00" routeLength="6035.84" waitingTime="0.00" waitingCount="0" stopTime="0.00" timeLoss="29.77" rerouteNo="0" devices="tripinfo_C_27" vType="typeC" speedFactor="1.01" vaporized=""/>
    <tripinfo id="C_28" depart="212.00" departLane="C_0" departPos="2.10" departSpeed="3.21" departDelay="0.00" arrival="674.00" arrivalLane="Y_0" arrivalPos="26.86" arrivalSpeed="11.79" duration="462.00" routeLength="6035.84" waitingTime="0.00" waitingCount="0" stopTime="0.00" timeLoss="61.32" rerouteNo="0" devices="tripinfo_C_28" vType="typeC" speedFactor="1.09" vaporized=""/>
    <tripinfo id="C_29" depart="213.00" departLane="C_0" departPos="2.10" departSpeed="2.81" departDelay="0.00" arrival="676.00" arrivalLane="Y_0" arrivalPos="26.86" arrivalSpeed="11.37" duration="463.00" routeLength="6035.84" waitingTime="0.00" waitingCount="0" stopTime="0.00" timeLoss="42.08" rerouteNo="0" devices="tripinfo_C_29" vType="typeC" speedFactor="1.03" vaporized=""/>
    <tripinfo id="C_30" depart="216.00" departLane="C_0" departPos="2.10" departSpeed="6.51" departDelay="0.00" arrival="678.00" arrivalLane="Y_0" arrivalPos="26.86" arrivalSpeed="11.23" duration="462.00" routeLength="6035.84" waitingTime="0.00" waitingCount="0" stopTime="0.00" timeLoss="33.83" rerouteNo="0" devices="tripinfo_C_30" vType="typeC" speedFactor="1.02" vaporized=""/>
    <tripinfo id="C_31" depart="218.00" departLane="C_0" departPos="2.10" departSpeed="5.23" departDelay="0.00" arrival="680.00" arrivalLane="Y_0" arrivalPos="26.86" arrivalSpeed="10.82" duration="462.00" routeLength="6035.84" waitingTime="0.00" waitingCount="0" stopTime="0.00" timeLoss="11.83" rerouteNo="0" devices="tripinfo_C_31" vType="typeC" speedFactor="0.97" vaporized=""/>
    <tripinfo id="C_32" depart="223.00" departLane="C_0" departPos="2.10" departSpeed="11.19" departDelay="0.00" arrival="682.00" arrivalLane="Y_0" arrivalPos="26.86" arrivalSpeed="10.90" duration="459.00" routeLength="6035.84" waitingTime="0.00" waitingCount="0" stopTime="0.00" timeLoss="12.94" rerouteNo="0" devices="tripinfo_C_32" vType="typeC" speedFactor="0.98" vaporized=""/>
    <tripinfo id="C_33" depart="238.00" departLane="C_0" departPos="2.10" departSpeed="11.21" departDelay="0.00" arrival="712.00" arrivalLane="Y_0" arrivalPos="26.86" arrivalSpeed="11.95" duration="474.00" routeLength="6035.84" waitingTime="0.00" waitingCount="0" stopTime="0.00" timeLoss="1.34" rerouteNo="0" devices="tripinfo_C_33" vType="typeC" speedFactor="0.92" vaporized=""/>
    <tripinfo id="A_1" depart="1.00" departLane="A_0" departPos="2.10" departSpeed="13.12" departDelay="0.00" arrival="714.00" arrivalLane="X_0" arrivalPos="25.59" arrivalSpeed="14.72" duration="713.00" routeLength="6023.49" waitingTime="301.00" waitingCount="1" stopTime="0.00" timeLoss="303.69" rerouteNo="0" devices="tripinfo_A_1" vType="typeA" speedFactor="1.06" vaporized=""/>
    <tripinfo id="C_34" depart="240.00" departLane="C_0" departPos="2.10" departSpeed="9.47" departDelay="0.00" arrival="715.00" arrivalLane="Y_0" arrivalPos="26.86" arrivalSpeed="12.29" duration="475.00" routeLength="6035.84" waitingTime="0.00" waitingCount="0" stopTime="0.00" timeLoss="75.37" rerouteNo="0" devices="tripinfo_C_34" vType="typeC" speedFactor="1.09" vaporized=""/>
    <tripinfo id="C_35" depart="252.00" departLane="C_0" departPos="2.10" departSpeed="6.95" departDelay="0.00" arrival="716.00" arrivalLane="Y_0" arrivalPos="26.86" arrivalSpeed="11.55" duration="464.00" routeLength="6035.84" waitingTime="0.00" waitingCount="0" stopTime="0.00" timeLoss="67.16" rerouteNo="0" devices="tripinfo_C_35" vType="typeC" speedFactor="1.10" vaporized=""/>
    <tripinfo id="C_36" depart="253.00" departLane="C_0" departPos="2.10" departSpeed="7.43" departDelay="0.00" arrival="718.00" arrivalLane="Y_0" arrivalPos="26.86" arrivalSpeed="11.62" duration="465.00" routeLength="6035.84" waitingTime="0.00" waitingCount="0" stopTime="0.00" timeLoss="56.14" rerouteNo="0" devices="tripinfo_C_36" vType="typeC" speedFactor="1.07" vaporized=""/>
    <tripinfo id="C_37" depart="263.00" departLane="C_0" departPos="2.10" departSpeed="9.85" departDelay="0.00" arrival="720.00" arrivalLane="Y_0" arrivalPos="26.86" arrivalSpeed="11.20" duration="457.00" routeLength="6035.84" waitingTime="0.00" waitingCount="0" stopTime="0.00" timeLoss="27.62" rerouteNo="0" devices="tripinfo_C_37" vType="typeC" speedFactor="1.01" vaporized=""/>
    <tripinfo id="C_38" depart="265.00" departLane="C_0" departPos="2.10" departSpeed="1.46" departDelay="0.00" arrival="722.00" arrivalLane="Y_0" arrivalPos="26.86" arrivalSpeed="11.37" duration="457.00" routeLength="6035.84" waitingTime="0.00" waitingCount="0" stopTime="0.00" timeLoss="36.08" rerouteNo="0" devices="tripinfo_C_38" vType="typeC" speedFactor="1.03" vaporized=""/>
    <tripinfo id="C_39" depart="272.00" departLane="C_0" departPos="2.10" departSpeed="10.06" departDelay="0.00" arrival="743.00" arrivalLane="Y_0" arrivalPos="26.86" arrivalSpeed="12.01" duration="471.00" routeLength="6035.84" waitingTime="0.00" waitingCount="0" stopTime="0.00" timeLoss="1.52" rerouteNo="0" devices="tripinfo_C_39" vType="typeC" speedFactor="0.93" vaporized=""/>
    <tripinfo id="C_40" depart="275.00" departLane="C_0" departPos="2.10" departSpeed="10.87" departDelay="0.00" arrival="746.00" arrivalLane="Y_0" arrivalPos="26.86" arrivalSpeed="12.25" duration="471.00" routeLength="6035.84" waitingTime="0.00" waitingCount="0" stopTime="0.00" timeLoss="74.13" rerouteNo="0" devices="tripinfo_C_40" vType="typeC" speedFactor="1.10" vaporized=""/>
    <tripinfo id="C_41" depart="278.00" departLane="C_0" departPos="2.10" departSpeed="10.86" departDelay="0.00" arrival="747.00" arrivalLane="Y_0" arrivalPos="26.86" arrivalSpeed="11.46" duration="469.00" routeLength="6035.84" waitingTime="0.00" waitingCount="0" stopTime="0.00" timeLoss="71.92" rerouteNo="0" devices="tripinfo_C_41" vType="typeC" speedFactor="1.10" vaporized=""/>
    <tripinfo id="C_42" depart="284.00" departLane="C_0" departPos="2.10" departSpeed="14.42" departDelay="0.00" arrival="749.00" arrivalLane="Y_0" arrivalPos="26.86" arrivalSpeed="11.73" duration="465.00" routeLength="6035.84" waitingTime="0.00" waitingCount="0" stopTime="0.00" timeLoss="95.05" rerouteNo="0" devices="tripinfo_C_42" vType="typeC" speedFactor="1.18" vaporized=""/>
    <tripinfo id="C_43" depart="292.00" departLane="C_0" departPos="2.10" departSpeed="0.63" departDelay="0.00" arrival="751.00" arrivalLane="Y_0" arrivalPos="26.86" arrivalSpeed="11.66" duration="459.00" routeLength="6035.84" waitingTime="0.00" waitingCount="0" stopTime="0.00" timeLoss="52.36" rerouteNo="0" devices="tripinfo_C_43" vType="typeC" speedFactor="1.07" vaporized=""/>
    <tripinfo id="C_44" depart="299.00" departLane="C_0" departPos="2.10" departSpeed="13.33" departDelay="0.00" arrival="753.00" arrivalLane="Y_0" arrivalPos="26.86" arrivalSpeed="11.58" duration="454.00" routeLength="6035.84" waitingTime="0.00" waitingCount="0" stopTime="0.00" timeLoss="43.51" rerouteNo="0" devices="tripinfo_C_44" vType="typeC" speedFactor="1.06" vaporized=""/>
    <tripinfo id="C_45" depart="322.00" departLane="C_0" departPos="2.10" departSpeed="8.26" departDelay="0.00" arrival="755.00" arrivalLane="Y_0" arrivalPos="26.86" arrivalSpeed="11.39" duration="433.00" routeLength="6035.84" waitingTime="0.00" waitingCount="0" stopTime="0.00" timeLoss="13.25" rerouteNo="0" devices="tripinfo_C_45" vType="typeC" speedFactor="1.04" vaporized=""/>
    <tripinfo id="C_46" depart="324.00" departLane="C_0" departPos="2.10" departSpeed="1.75" departDelay="0.00" arrival="757.00" arrivalLane="Y_0" arrivalPos="26.86" arrivalSpeed="11.98" duration="433.00" routeLength="6035.84" waitingTime="0.00" waitingCount="0" stopTime="0.00" timeLoss="77.72" rerouteNo="0" devices="tripinfo_C_46" vType="typeC" speedFactor="1.23" vaporized=""/>
    <tripinfo id="B_7" depart="58.00" departLane="B_0" departPos="2.10" departSpeed="8.58" departDelay="0.00" arrival="763.00" arrivalLane="Y_0" arrivalPos="26.86" arrivalSpeed="10.50" duration="705.00" routeLength="6037.61" waitingTime="221.00" waitingCount="3" stopTime="0.00" timeLoss="259.06" rerouteNo="1" devices="tripinfo_B_7" vType="typeB" speedFactor="0.98" vaporized=""/>
    <tripinfo id="B_8" depart="74.00" departLane="B_0" departPos="2.10" departSpeed="3.72" departDelay="0.00" arrival="765.00" arrivalLane="X_0" arrivalPos="25.59" arrivalSpeed="12.00" duration="691.00" routeLength="6036.58" waitingTime="221.00" waitingCount="3" stopTime="0.00" timeLoss="306.39" rerouteNo="1" devices="tripinfo_B_8" vType="typeB" speedFactor="1.13" vaporized=""/>
    <tripinfo id="B_9" depart="78.00" departLane="B_0" departPos="2.10" departSpeed="12.26" departDelay="0.00" arrival="766.00" arrivalLane="X_0" arrivalPos="25.59" arrivalSpeed="11.25" duration="688.00" routeLength="6036.58" waitingTime="221.00" waitingCount="3" stopTime="0.00" timeLoss="311.49" rerouteNo="1" devices="tripinfo_B_9" vType="typeB" speedFactor="1.15" vaporized=""/>
    <tripinfo id="B_10" depart="87.00" departLane="B_0" departPos="2.10" departSpeed="15.57" departDelay="0.00" arrival="768.00" arrivalLane="X_0" arrivalPos="25.59" arrivalSpeed="11.63" duration="681.00" routeLength="6036.58" waitingTime="221.00" waitingCount="3" stopTime="0.00" timeLoss="309.97" rerouteNo="1" devices="tripinfo_B_10" vType="typeB" speedFactor="1.17" vaporized=""/>
    <tripinfo id="B_11" depart="108.00" departLane="B_0" departPos="2.10" departSpeed="13.80" departDelay="0.00" arrival="770.00" arrivalLane="X_0" arrivalPos="25.59" arrivalSpeed="11.81" duration="662.00" routeLength="6036.58" waitingTime="221.00" waitingCount="3" stopTime="0.00" timeLoss="240.00" rerouteNo="1" devices="tripinfo_B_11" vType="typeB" speedFactor="1.03" vaporized=""/>
    <tripinfo id="C_47" depart="356.00" departLane="C_0" departPos="2.10" departSpeed="4.26" departDelay="0.00" arrival="850.00" arrivalLane="Y_0" arrivalPos="26.86" arrivalSpeed="11.67" duration="494.00" routeLength="6035.84" waitingTime="0.00" waitingCount="0" stopTime="0.00" timeLoss="3.02" rerouteNo="0" devices="tripinfo_C_47" vType="typeC" speedFactor="0.89" vaporized=""/>
    <tripinfo id="C_48" depart="361.00" departLane="C_0" departPos="2.10" departSpeed="4.89" departDelay="0.00" arrival="853.00" arrivalLane="Y_0" arrivalPos="26.86" arrivalSpeed="12.25" duration="492.00" routeLength="6035.84" waitingTime="0.00" waitingCount="0" stopTime="0.00" timeLoss="72.75" rerouteNo="0" devices="tripinfo_C_48" vType="typeC" speedFactor="1.04" vaporized=""/>
    <tripinfo id="C_49" depart="376.00" departLane="C_0" departPos="2.10" departSpeed="13.67" departDelay="0.00" arrival="854.00" arrivalLane="Y_0" arrivalPos="26.86" arrivalSpeed="11.38" duration="478.00" routeLength="6035.84" waitingTime="0.00" waitingCount="0" stopTime="0.00" timeLoss="71.67" rerouteNo="0" devices="tripinfo_C_49" vType="typeC" speedFactor="1.07" vaporized=""/>
    <tripinfo id="C_50" depart="377.00" departLane="C_0" departPos="2.10" departSpeed="0.15" departDelay="0.00" arrival="857.00" arrivalLane="Y_0" arrivalPos="26.86" arrivalSpeed="12.00" duration="480.00" routeLength="6035.84" waitingTime="0.00" waitingCount="0" stopTime="0.00" timeLoss="9.61" rerouteNo="0" devices="tripinfo_C_50" vType="typeC" speedFactor="0.93" vaporized=""/>
    <tripinfo id="C_51" depart="379.00" departLane="C_0" departPos="2.10" departSpeed="1.45" departDelay="0.00" arrival="858.00" arrivalLane="Y_0" arrivalPos="26.86" arrivalSpeed="11.61" duration="479.00" routeLength="6035.84" waitingTime="0.00" waitingCount="0" stopTime="0.00" timeLoss="69.95" rerouteNo="0" devices="tripinfo_C_51" vType="typeC" speedFactor="1.06" vaporized=""/>
    <tripinfo id="C_52" depart="397.00" departLane="C_0" departPos="2.10" departSpeed="14.65" departDelay="0.00" arrival="860.00" arrivalLane="Y_0" arrivalPos="26.86" arrivalSpeed="11.92" duration="463.00" routeLength="6035.84" waitingTime="0.00" waitingCount="0" stopTime="0.00" timeLoss="76.51" rerouteNo="0" devices="tripinfo_C_52" vType="typeC" speedFactor="1.13" vaporized=""/>
    <tripinfo id="B_12" depart="110.00" departLane="B_0" departPos="2.10" departSpeed="3.51" departDelay="0.00" arrival="866.00" arrivalLane="Y_0" arrivalPos="26.86" arrivalSpeed="10.50" duration="756.00" routeLength="6037.61" waitingTime="284.00" waitingCount="3" stopTime="0.00" timeLoss="301.72" rerouteNo="1" devices="tripinfo_B_12" vType="typeB" speedFactor="0.96" vaporized=""/>
    <tripinfo id="B_13" depart="119.00" departLane="B_0" departPos="2.10" departSpeed="8.28" departDelay="0.00" arrival="868.00" arrivalLane="X_0" arrivalPos="25.59" arrivalSpeed="12.00" duration="749.00" routeLength="6036.58" waitingTime="284.00" waitingCount="3" stopTime="0.00" timeLoss="331.80" rerouteNo="1" devices="tripinfo_B_13" vType="typeB" speedFactor="1.04" vaporized=""/>
    <tripinfo id="B_14" depart="125.00" departLane="B_0" departPos="2.10" departSpeed="1.11" departDelay="0.00" arrival="869.00" arrivalLane="X_0" arrivalPos="25.59" arrivalSpeed="11.25" duration="744.00" routeLength="6036.58" waitingTime="243.00" waitingCount="3" stopTime="0.00" timeLoss="261.32" rerouteNo="1" devices="tripinfo_B_14" vType="typeB" speedFactor="0.90" vaporized=""/>
    <tripinfo id="B_15" depart="133.00" departLane="B_0" departPos="2.10" departSpeed="7.08" departDelay="0.00" arrival="871.00" arrivalLane="Y_0" arrivalPos="26.86" arrivalSpeed="11.87" duration="738.00" routeLength="6037.61" waitingTime="217.00" waitingCount="2" stopTime="0.00" timeLoss="228.93" rerouteNo="1" devices="tripinfo_B_15" vType="typeB" speedFactor="0.85" vaporized=""/>
    <tripinfo id="B_16" depart="141.00" departLane="B_0" departPos="2.10" departSpeed="4.29" departDelay="0.00" arrival="872.00" arrivalLane="X_0" arrivalPos="25.59" arrivalSpeed="12.75" duration="731.00" routeLength="6036.58" waitingTime="217.00" waitingCount="2" stopTime="0.00" timeLoss="297.44" rerouteNo="1" devices="tripinfo_B_16" vType="typeB" speedFactor="1.00" vaporized=""/>
    <tripinfo id="B_17" depart="172.00" departLane="B_0" departPos="2.10" departSpeed="2.36" departDelay="0.00" arrival="874.00" arrivalLane="X_0" arrivalPos="25.59" arrivalSpeed="13.50" duration="702.00" routeLength="6036.58" waitingTime="217.00" waitingCount="2" stopTime="0.00" timeLoss="313.10" rerouteNo="1" devices="tripinfo_B_17" vType="typeB" speedFactor="1.12" vaporized=""/>
    <tripinfo id="B_18" depart="174.00" departLane="B_0" departPos="2.10" departSpeed="3.93" departDelay="1.00" arrival="876.00" arrivalLane="X_0" arrivalPos="25.59" arrivalSpeed="12.75" duration="702.00" routeLength="6036.58" waitingTime="217.00" waitingCount="2" stopTime="0.00" timeLoss="273.66" rerouteNo="1" devices="tripinfo_B_18" vType="typeB" speedFactor="1.02" vaporized=""/>
    <tripinfo id="B_19" depart="175.00" departLane="B_0" departPos="2.10" departSpeed="3.47" departDelay="0.00" arrival="878.00" arrivalLane="X_0" arrivalPos="25.59" arrivalSpeed="12.38" duration="703.00" routeLength="6036.58" waitingTime="217.00" waitingCount="2" stopTime="0.00" timeLoss="262.27" rerouteNo="1" devices="tripinfo_B_19" vType="typeB" speedFactor="0.99" vaporized=""/>
    <tripinfo id="B_20" depart="178.00" departLane="B_0" departPos="2.10" departSpeed="0.82" departDelay="0.00" arrival="880.00" arrivalLane="X_0" arrivalPos="25.59" arrivalSpeed="12.19" duration="702.00" routeLength="6036.58" waitingTime="191.00" waitingCount="2" stopTime="0.00" timeLoss="209.06" rerouteNo="1" devices="tripinfo_B_20" vType="typeB" speedFactor="0.88" vaporized=""/>
    <tripinfo id="B_21" depart="190.00" departLane="B_0" departPos="2.10" departSpeed="1.22" departDelay="0.00" arrival="882.00" arrivalLane="X_0" arrivalPos="25.59" arrivalSpeed="12.09" duration="692.00" routeLength="6036.58" waitingTime="191.00" waitingCount="2" stopTime="0.00" timeLoss="266.88" rerouteNo="1" devices="tripinfo_B_21" vType="typeB" speedFactor="1.02" vaporized=""/>
    <tripinfo id="B_22" depart="194.00" departLane="B_0" departPos="2.10" departSpeed="7.66" departDelay="0.00" arrival="884.00" arrivalLane="X_0" arrivalPos="25.59" arrivalSpeed="12.05" duration="690.00" routeLength="6036.58" waitingTime="191.00" waitingCount="2" stopTime="0.00" timeLoss="243.01" rerouteNo="1" devices="tripinfo_B_22" vType="typeB" speedFactor="0.97" vaporized=""/>