<?xml version="1.0" encoding="UTF-8"?>

<!-- generated on 2021-07-10 17:00:45 by Eclipse SUMO GUI Version 1.9.2
<configuration xmlns:xsi="http://www.w3.org/2001/XMLSchema-instance" xsi:noNamespaceSchemaLocation="http://sumo.dlr.de/xsd/sumoConfiguration.xsd">

    <input>
        <net-file value="sumo_data/laneMerging2.net.xml"/>
        <route-files value="sumo_data/laneMerging.rou.xml"/>
        <additional-files value="sumo_data/laneMerging.add.xml"/>
    </input>

    <output>
        <tripinfo-output value="sumo_data/tripinfo_dp.xml"/>
    </output>

    <report>
        <no-warnings value="true"/>
        <duration-log.disable value="true"/>
        <no-step-log value="true"/>
    </report>

    <traci_server>
        <remote-port value="59556"/>
    </traci_server>

    <gui_only>
        <gui-settings-file value="sumo_data/laneMerging.view.xml"/>
        <start value="true"/>
    </gui_only>

</configuration>
-->

<tripinfos xmlns:xsi="http://www.w3.org/2001/XMLSchema-instance" xsi:noNamespaceSchemaLocation="http://sumo.dlr.de/xsd/tripinfo_file.xsd">
    <tripinfo id="C_1" depart="1.00" departLane="E8_0" departPos="2.10" departSpeed="13.12" departDelay="0.00" arrival="413.00" arrivalLane="E10_0" arrivalPos="26.86" arrivalSpeed="11.58" duration="412.00" routeLength="6035.84" waitingTime="0.00" waitingCount="0" stopTime="0.00" timeLoss="1.57" rerouteNo="0" devices="tripinfo_C_1" vType="typeC" speedFactor="1.06" vaporized=""/>
    <tripinfo id="C_2" depart="4.00" departLane="E8_0" departPos="2.10" departSpeed="7.39" departDelay="0.00" arrival="415.00" arrivalLane="E10_0" arrivalPos="26.86" arrivalSpeed="13.08" duration="411.00" routeLength="6035.84" waitingTime="0.00" waitingCount="0" stopTime="0.00" timeLoss="8.60" rerouteNo="0" devices="tripinfo_C_2" vType="typeC" speedFactor="1.08" vaporized=""/>
    <tripinfo id="B_1" depart="3.00" departLane="E7_0" departPos="2.10" departSpeed="9.29" departDelay="0.00" arrival="467.00" arrivalLane="E9_0" arrivalPos="25.59" arrivalSpeed="13.03" duration="464.00" routeLength="6036.58" waitingTime="0.00" waitingCount="0" stopTime="0.00" timeLoss="0.23" rerouteNo="2" devices="tripinfo_B_1" vType="typeB" speedFactor="0.94" vaporized=""/>
    <tripinfo id="B_2" depart="5.00" departLane="E7_0" departPos="2.10" departSpeed="8.44" departDelay="0.00" arrival="468.00" arrivalLane="E9_0" arrivalPos="25.59" arrivalSpeed="14.31" duration="463.00" routeLength="6036.58" waitingTime="0.00" waitingCount="0" stopTime="0.00" timeLoss="40.87" rerouteNo="1" devices="tripinfo_B_2" vType="typeB" speedFactor="1.03" vaporized=""/>
    <tripinfo id="B_3" depart="6.00" departLane="E7_0" departPos="2.10" departSpeed="9.04" departDelay="0.00" arrival="472.00" arrivalLane="E9_0" arrivalPos="25.59" arrivalSpeed="12.06" duration="466.00" routeLength="6036.58" waitingTime="0.00" waitingCount="0" stopTime="0.00" timeLoss="50.16" rerouteNo="1" devices="tripinfo_B_3" vType="typeB" speedFactor="1.05" vaporized=""/>
    <tripinfo id="B_4" depart="7.00" departLane="E7_0" departPos="2.10" departSpeed="7.10" departDelay="0.00" arrival="474.00" arrivalLane="E10_0" arrivalPos="26.86" arrivalSpeed="13.03" duration="467.00" routeLength="6037.61" waitingTime="0.00" waitingCount="0" stopTime="0.00" timeLoss="2.65" rerouteNo="1" devices="tripinfo_B_4" vType="typeB" speedFactor="0.94" vaporized=""/>
    <tripinfo id="A_1" depart="4.00" departLane="E6_0" departPos="2.10" departSpeed="0.64" departDelay="0.00" arrival="480.00" arrivalLane="E9_0" arrivalPos="25.59" arrivalSpeed="10.50" duration="476.00" routeLength="6035.74" waitingTime="36.00" waitingCount="1" stopTime="0.00" timeLoss="45.45" rerouteNo="0" devices="tripinfo_A_1" vType="typeA" speedFactor="1.01" vaporized=""/>
    <tripinfo id="B_5" depart="14.00" departLane="E7_0" departPos="2.10" departSpeed="8.83" departDelay="0.00" arrival="480.00" arrivalLane="E10_0" arrivalPos="26.86" arrivalSpeed="10.50" duration="466.00" routeLength="6037.61" waitingTime="1.00" waitingCount="1" stopTime="0.00" timeLoss="78.79" rerouteNo="1" devices="tripinfo_B_5" vType="typeB" speedFactor="1.12" vaporized=""/>
    <tripinfo id="A_2" depart="7.00" departLane="E6_0" departPos="2.10" departSpeed="3.05" departDelay="0.00" arrival="501.00" arrivalLane="E9_0" arrivalPos="25.59" arrivalSpeed="11.74" duration="494.00" routeLength="6035.74" waitingTime="0.00" waitingCount="0" stopTime="0.00" timeLoss="2.59" rerouteNo="0" devices="tripinfo_A_2" vType="typeA" speedFactor="0.89" vaporized=""/>
    <tripinfo id="A_3" depart="10.00" departLane="E6_0" departPos="2.10" departSpeed="6.65" departDelay="0.00" arrival="502.00" arrivalLane="E9_0" arrivalPos="25.59" arrivalSpeed="11.74" duration="492.00" routeLength="6035.74" waitingTime="0.00" waitingCount="0" stopTime="0.00" timeLoss="68.33" rerouteNo="0" devices="tripinfo_A_3" vType="typeA" speedFactor="1.03" vaporized=""/>
    <tripinfo id="A_4" depart="12.00" departLane="E6_0" departPos="2.10" departSpeed="6.58" departDelay="0.00" arrival="508.00" arrivalLane="E9_0" arrivalPos="25.59" arrivalSpeed="11.43" duration="496.00" routeLength="6035.74" waitingTime="0.00" waitingCount="0" stopTime="0.00" timeLoss="80.00" rerouteNo="0" devices="tripinfo_A_4" vType="typeA" speedFactor="1.05" vaporized=""/>
    <tripinfo id="A_5" depart="17.00" departLane="E6_0" departPos="2.10" departSpeed="0.78" departDelay="0.00" arrival="509.00" arrivalLane="E9_0" arrivalPos="25.59" arrivalSpeed="11.43" duration="492.00" routeLength="6035.74" waitingTime="0.00" waitingCount="0" stopTime="0.00" timeLoss="22.46" rerouteNo="0" devices="tripinfo_A_5" vType="typeA" speedFactor="0.93" vaporized=""/>
    <tripinfo id="A_6" depart="19.00" departLane="E6_0" departPos="2.10" departSpeed="0.56" departDelay="1.00" arrival="518.00" arrivalLane="E9_0" arrivalPos="25.59" arrivalSpeed="11.67" duration="499.00" routeLength="6035.74" waitingTime="0.00" waitingCount="0" stopTime="0.00" timeLoss="3.93" rerouteNo="0" devices="tripinfo_A_6" vType="typeA" speedFactor="0.88" vaporized=""/>
    <tripinfo id="A_7" depart="21.00" departLane="E6_0" departPos="2.10" departSpeed="2.35" departDelay="2.00" arrival="520.00" arrivalLane="E9_0" arrivalPos="25.59" arrivalSpeed="13.17" duration="499.00" routeLength="6035.74" waitingTime="0.00" waitingCount="0" stopTime="0.00" timeLoss="122.98" rerouteNo="0" devices="tripinfo_A_7" vType="typeA" speedFactor="1.16" vaporized=""/>
    <tripinfo id="A_8" depart="23.00" departLane="E6_0" departPos="2.10" departSpeed="2.77" departDelay="3.00" arrival="526.00" arrivalLane="E9_0" arrivalPos="25.59" arrivalSpeed="10.50" duration="503.00" routeLength="6035.74" waitingTime="1.00" waitingCount="1" stopTime="0.00" timeLoss="75.71" rerouteNo="0" devices="tripinfo_A_8" vType="typeA" speedFactor="1.02" vaporized=""/>
    <tripinfo id="A_9" depart="25.00" departLane="E6_0" departPos="2.10" departSpeed="3.53" departDelay="3.00" arrival="528.00" arrivalLane="E9_0" arrivalPos="25.59" arrivalSpeed="12.00" duration="503.00" routeLength="6035.74" waitingTime="1.00" waitingCount="1" stopTime="0.00" timeLoss="56.23" rerouteNo="0" devices="tripinfo_A_9" vType="typeA" speedFactor="0.98" vaporized=""/>
    <tripinfo id="A_10" depart="27.00" departLane="E6_0" departPos="2.10" departSpeed="4.02" departDelay="3.00" arrival="532.00" arrivalLane="E9_0" arrivalPos="25.59" arrivalSpeed="11.19" duration="505.00" routeLength="6035.74" waitingTime="0.00" waitingCount="0" stopTime="0.00" timeLoss="6.26" rerouteNo="0" devices="tripinfo_A_10" vType="typeA" speedFactor="0.87" vaporized=""/>
    <tripinfo id="C_3" depart="5.00" departLane="E8_0" departPos="2.10" departSpeed="0.50" departDelay="0.00" arrival="533.00" arrivalLane="E10_0" arrivalPos="26.86" arrivalSpeed="11.22" duration="528.00" routeLength="6035.84" waitingTime="0.00" waitingCount="0" stopTime="0.00" timeLoss="4.29" rerouteNo="0" devices="tripinfo_C_3" vType="typeC" speedFactor="0.83" vaporized=""/>
    <tripinfo id="A_11" depart="28.00" departLane="E6_0" departPos="2.10" departSpeed="2.82" departDelay="3.00" arrival="533.00" arrivalLane="E9_0" arrivalPos="25.59" arrivalSpeed="11.19" duration="505.00" routeLength="6035.74" waitingTime="0.00" waitingCount="0" stopTime="0.00" timeLoss="30.76" rerouteNo="0" devices="tripinfo_A_11" vType="typeA" speedFactor="0.92" vaporized=""/>
    <tripinfo id="C_4" depart="7.00" departLane="E8_0" departPos="2.10" departSpeed="2.25" departDelay="0.00" arrival="535.00" arrivalLane="E10_0" arrivalPos="26.86" arrivalSpeed="11.43" duration="528.00" routeLength="6035.84" waitingTime="0.00" waitingCount="0" stopTime="0.00" timeLoss="19.44" rerouteNo="0" devices="tripinfo_C_4" vType="typeC" speedFactor="0.86" vaporized=""/>
    <tripinfo id="C_5" depart="9.00" departLane="E8_0" departPos="2.10" departSpeed="2.63" departDelay="1.00" arrival="536.00" arrivalLane="E10_0" arrivalPos="26.86" arrivalSpeed="11.53" duration="527.00" routeLength="6035.84" waitingTime="0.00" waitingCount="0" stopTime="0.00" timeLoss="127.72" rerouteNo="0" devices="tripinfo_C_5" vType="typeC" speedFactor="1.09" vaporized=""/>
    <tripinfo id="C_6" depart="14.00" departLane="E8_0" departPos="2.10" departSpeed="3.64" departDelay="0.00" arrival="538.00" arrivalLane="E10_0" arrivalPos="26.86" arrivalSpeed="12.46" duration="524.00" routeLength="6035.84" waitingTime="0.00" waitingCount="0" stopTime="0.00" timeLoss="84.78" rerouteNo="0" devices="tripinfo_C_6" vType="typeC" speedFactor="0.99" vaporized=""/>
    <tripinfo id="C_7" depart="18.00" departLane="E8_0" departPos="2.10" departSpeed="8.89" departDelay="0.00" arrival="544.00" arrivalLane="E10_0" arrivalPos="26.86" arrivalSpeed="10.50" duration="526.00" routeLength="6035.84" waitingTime="1.00" waitingCount="1" stopTime="0.00" timeLoss="61.12" rerouteNo="0" devices="tripinfo_C_7" vType="typeC" speedFactor="0.94" vaporized=""/>
    <tripinfo id="C_8" depart="20.00" departLane="E8_0" departPos="2.10" departSpeed="8.89" departDelay="0.00" arrival="546.00" arrivalLane="E10_0" arrivalPos="26.86" arrivalSpeed="12.00" duration="526.00" routeLength="6035.84" waitingTime="1.00" waitingCount="1" stopTime="0.00" timeLoss="94.53" rerouteNo="0" devices="tripinfo_C_8" vType="typeC" speedFactor="1.01" vaporized=""/>
    <tripinfo id="B_6" depart="18.00" departLane="E7_0" departPos="2.10" departSpeed="4.21" departDelay="0.00" arrival="553.00" arrivalLane="E10_0" arrivalPos="26.86" arrivalSpeed="10.50" duration="535.00" routeLength="6037.61" waitingTime="65.00" waitingCount="1" stopTime="0.00" timeLoss="73.12" rerouteNo="1" devices="tripinfo_B_6" vType="typeB" speedFactor="0.94" vaporized=""/>
    <tripinfo id="B_7" depart="23.00" departLane="E7_0" departPos="2.10" departSpeed="2.93" departDelay="0.00" arrival="555.00" arrivalLane="E10_0" arrivalPos="26.86" arrivalSpeed="12.00" duration="532.00" routeLength="6037.61" waitingTime="34.00" waitingCount="1" stopTime="0.00" timeLoss="42.62" rerouteNo="1" devices="tripinfo_B_7" vType="typeB" speedFactor="0.89" vaporized=""/>
    <tripinfo id="B_8" depart="28.00" departLane="E7_0" departPos="2.10" departSpeed="4.32" departDelay="0.00" arrival="560.00" arrivalLane="E10_0" arrivalPos="26.86" arrivalSpeed="10.50" duration="532.00" routeLength="6037.61" waitingTime="35.00" waitingCount="2" stopTime="0.00" timeLoss="163.07" rerouteNo="1" devices="tripinfo_B_8" vType="typeB" speedFactor="1.18" vaporized=""/>
    <tripinfo id="B_9" depart="29.00" departLane="E7_0" departPos="2.10" departSpeed="3.37" departDelay="0.00" arrival="562.00" arrivalLane="E10_0" arrivalPos="26.86" arrivalSpeed="12.00" duration="533.00" routeLength="6037.61" waitingTime="35.00" waitingCount="2" stopTime="0.00" timeLoss="99.88" rerouteNo="1" devices="tripinfo_B_9" vType="typeB" speedFactor="1.01" vaporized=""/>
    <tripinfo id="B_10" depart="36.00" departLane="E7_0" departPos="2.10" departSpeed="12.34" departDelay="0.00" arrival="563.00" arrivalLane="E9_0" arrivalPos="25.59" arrivalSpeed="12.00" duration="527.00" routeLength="6036.58" waitingTime="35.00" waitingCount="2" stopTime="0.00" timeLoss="72.54" rerouteNo="1" devices="tripinfo_B_10" vType="typeB" speedFactor="0.96" vaporized=""/>
    <tripinfo id="C_9" depart="23.00" departLane="E8_0" departPos="2.10" departSpeed="0.37" departDelay="0.00" arrival="569.00" arrivalLane="E10_0" arrivalPos="26.86" arrivalSpeed="10.50" duration="546.00" routeLength="6035.84" waitingTime="11.00" waitingCount="1" stopTime="0.00" timeLoss="18.87" rerouteNo="0" devices="tripinfo_C_9" vType="typeC" speedFactor="0.83" vaporized=""/>
    <tripinfo id="C_10" depart="25.00" departLane="E8_0" departPos="2.10" departSpeed="2.06" departDelay="0.00" arrival="571.00" arrivalLane="E10_0" arrivalPos="26.86" arrivalSpeed="12.00" duration="546.00" routeLength="6035.84" waitingTime="11.00" waitingCount="1" stopTime="0.00" timeLoss="86.65" rerouteNo="0" devices="tripinfo_C_10" vType="typeC" speedFactor="0.95" vaporized=""/>
    <tripinfo id="A_12" depart="30.00" departLane="E6_0" departPos="2.10" departSpeed="1.40" departDelay="4.00" arrival="571.00" arrivalLane="E9_0" arrivalPos="25.59" arrivalSpeed="10.50" duration="541.00" routeLength="6035.74" waitingTime="33.00" waitingCount="1" stopTime="0.00" timeLoss="156.64" rerouteNo="0" devices="tripinfo_A_12" vType="typeA" speedFactor="1.13" vaporized=""/>
    <tripinfo id="C_11" depart="27.00" departLane="E8_0" departPos="2.10" departSpeed="1.62" departDelay="1.00" arrival="573.00" arrivalLane="E10_0" arrivalPos="26.86" arrivalSpeed="12.03" duration="546.00" routeLength="6035.84" waitingTime="11.00" waitingCount="1" stopTime="0.00" timeLoss="77.85" rerouteNo="0" devices="tripinfo_C_11" vType="typeC" speedFactor="0.93" vaporized=""/>
    <tripinfo id="A_13" depart="32.00" departLane="E6_0" departPos="2.10" departSpeed="3.80" departDelay="0.00" arrival="573.00" arrivalLane="E9_0" arrivalPos="25.59" arrivalSpeed="12.00" duration="541.00" routeLength="6035.74" waitingTime="33.00" waitingCount="1" stopTime="0.00" timeLoss="113.79" rerouteNo="0" devices="tripinfo_A_13" vType="typeA" speedFactor="1.02" vaporized=""/>
    <tripinfo id="C_12" depart="29.00" departLane="E8_0" departPos="2.10" departSpeed="2.75" departDelay="1.00" arrival="574.00" arrivalLane="E10_0" arrivalPos="26.86" arrivalSpeed="11.63" duration="545.00" routeLength="6035.84" waitingTime="11.00" waitingCount="1" stopTime="0.00" timeLoss="167.83" rerouteNo="0" devices="tripinfo_C_12" vType="typeC" speedFactor="1.15" vaporized=""/>
    <tripinfo id="C_13" depart="31.00" departLane="E8_0" departPos="2.10" departSpeed="3.50" departDelay="2.00" arrival="576.00" arrivalLane="E10_0" arrivalPos="26.86" arrivalSpeed="11.81" duration="545.00" routeLength="6035.84" waitingTime="11.00" waitingCount="1" stopTime="0.00" timeLoss="173.35" rerouteNo="0" devices="tripinfo_C_13" vType="typeC" speedFactor="1.17" vaporized=""/>
    <tripinfo id="C_14" depart="33.00" departLane="E8_0" departPos="2.10" departSpeed="4.67" departDelay="3.00" arrival="578.00" arrivalLane="E10_0" arrivalPos="26.86" arrivalSpeed="11.05" duration="545.00" routeLength="6035.84" waitingTime="11.00" waitingCount="1" stopTime="0.00" timeLoss="107.39" rerouteNo="0" devices="tripinfo_C_14" vType="typeC" speedFactor="0.99" vaporized=""/>
    <tripinfo id="A_14" depart="34.00" departLane="E6_0" departPos="2.10" departSpeed="2.76" departDelay="1.00" arrival="578.00" arrivalLane="E9_0" arrivalPos="25.59" arrivalSpeed="10.50" duration="544.00" routeLength="6035.74" waitingTime="34.00" waitingCount="2" stopTime="0.00" timeLoss="175.22" rerouteNo="0" devices="tripinfo_A_14" vType="typeA" speedFactor="1.18" vaporized=""/>
    <tripinfo id="C_15" depart="34.00" departLane="E8_0" departPos="2.10" departSpeed="2.76" departDelay="2.00" arrival="580.00" arrivalLane="E10_0" arrivalPos="26.86" arrivalSpeed="10.87" duration="546.00" routeLength="6035.84" waitingTime="11.00" waitingCount="1" stopTime="0.00" timeLoss="98.71" rerouteNo="0" devices="tripinfo_C_15" vType="typeC" speedFactor="0.97" vaporized=""/>
    <tripinfo id="A_15" depart="36.00" departLane="E6_0" departPos="2.10" departSpeed="0.43" departDelay="2.00" arrival="580.00" arrivalLane="E9_0" arrivalPos="25.59" arrivalSpeed="12.00" duration="544.00" routeLength="6035.74" waitingTime="34.00" waitingCount="2" stopTime="0.00" timeLoss="148.81" rerouteNo="0" devices="tripinfo_A_15" vType="typeA" speedFactor="1.10" vaporized=""/>
    <tripinfo id="C_16" depart="36.00" departLane="E8_0" departPos="2.10" departSpeed="3.49" departDelay="2.00" arrival="583.00" arrivalLane="E10_0" arrivalPos="26.86" arrivalSpeed="11.79" duration="547.00" routeLength="6035.84" waitingTime="11.00" waitingCount="1" stopTime="0.00" timeLoss="62.85" rerouteNo="0" devices="tripinfo_C_16" vType="typeC" speedFactor="0.90" vaporized=""/>
    <tripinfo id="A_16" depart="38.00" departLane="E6_0" departPos="2.10" departSpeed="2.14" departDelay="2.00" arrival="585.00" arrivalLane="E9_0" arrivalPos="25.59" arrivalSpeed="10.50" duration="547.00" routeLength="6035.74" waitingTime="35.00" waitingCount="3" stopTime="0.00" timeLoss="124.80" rerouteNo="0" devices="tripinfo_A_16" vType="typeA" speedFactor="1.03" vaporized=""/>
    <tripinfo id="A_17" depart="40.00" departLane="E6_0" departPos="2.10" departSpeed="2.46" departDelay="2.00" arrival="587.00" arrivalLane="E9_0" arrivalPos="25.59" arrivalSpeed="12.00" duration="547.00" routeLength="6035.74" waitingTime="35.00" waitingCount="3" stopTime="0.00" timeLoss="146.64" rerouteNo="0" devices="tripinfo_A_17" vType="typeA" speedFactor="1.09" vaporized=""/>
    <tripinfo id="B_11" depart="37.00" departLane="E7_0" departPos="2.10" departSpeed="4.52" departDelay="0.00" arrival="590.00" arrivalLane="E10_0" arrivalPos="26.86" arrivalSpeed="10.50" duration="553.00" routeLength="6037.61" waitingTime="57.00" waitingCount="3" stopTime="0.00" timeLoss="134.02" rerouteNo="1" devices="tripinfo_B_11" vType="typeB" speedFactor="1.04" vaporized=""/>
    <tripinfo id="A_18" depart="42.00" departLane="E6_0" departPos="2.10" departSpeed="2.94" departDelay="3.00" arrival="592.00" arrivalLane="E9_0" arrivalPos="25.59" arrivalSpeed="10.50" duration="550.00" routeLength="6035.74" waitingTime="36.00" waitingCount="4" stopTime="0.00" timeLoss="113.84" rerouteNo="0" devices="tripinfo_A_18" vType="typeA" speedFactor="1.00" vaporized=""/>
    <tripinfo id="B_12" depart="41.00" departLane="E7_0" departPos="2.10" departSpeed="5.03" departDelay="0.00" arrival="592.00" arrivalLane="E10_0" arrivalPos="26.86" arrivalSpeed="11.87" duration="551.00" routeLength="6037.61" waitingTime="27.00" waitingCount="3" stopTime="0.00" timeLoss="41.79" rerouteNo="1" devices="tripinfo_B_12" vType="typeB" speedFactor="0.85" vaporized=""/>
    <tripinfo id="A_19" depart="44.00" departLane="E6_0" departPos="2.10" departSpeed="3.87" departDelay="4.00" arrival="594.00" arrivalLane="E9_0" arrivalPos="25.59" arrivalSpeed="12.00" duration="550.00" routeLength="6035.74" waitingTime="35.00" waitingCount="4" stopTime="0.00" timeLoss="53.26" rerouteNo="0" devices="tripinfo_A_19" vType="typeA" speedFactor="0.88" vaporized=""/>
    <tripinfo id="B_13" depart="43.00" departLane="E7_0" departPos="2.10" departSpeed="5.16" departDelay="0.00" arrival="597.00" arrivalLane="E10_0" arrivalPos="26.86" arrivalSpeed="10.50" duration="554.00" routeLength="6037.61" waitingTime="28.00" waitingCount="4" stopTime="0.00" timeLoss="126.37" rerouteNo="1" devices="tripinfo_B_13" vType="typeB" speedFactor="1.02" vaporized=""/>
    <tripinfo id="A_20" depart="46.00" departLane="E6_0" departPos="2.10" departSpeed="5.16" departDelay="1.00" arrival="599.00" arrivalLane="E9_0" arrivalPos="25.59" arrivalSpeed="10.50" duration="553.00" routeLength="6035.74" waitingTime="36.00" waitingCount="5" stopTime="0.00" timeLoss="119.34" rerouteNo="0" devices="tripinfo_A_20" vType="typeA" speedFactor="1.00" vaporized=""/>
    <tripinfo id="B_14" depart="45.00" departLane="E7_0" departPos="2.10" departSpeed="8.59" departDelay="0.00" arrival="599.00" arrivalLane="E10_0" arrivalPos="26.86" arrivalSpeed="12.00" duration="554.00" routeLength="6037.61" waitingTime="28.00" waitingCount="4" stopTime="0.00" timeLoss="116.92" rerouteNo="1" devices="tripinfo_B_14" vType="typeB" speedFactor="1.00" vaporized=""/>
    <tripinfo id="A_21" depart="47.00" departLane="E6_0" departPos="2.10" departSpeed="3.49" departDelay="0.00" arrival="601.00" arrivalLane="E9_0" arrivalPos="25.59" arrivalSpeed="12.00" duration="554.00" routeLength="6035.74" waitingTime="36.00" waitingCount="5" stopTime="0.00" timeLoss="172.72" rerouteNo="0" devices="tripinfo_A_21" vType="typeA" speedFactor="1.14" vaporized=""/>
    <tripinfo id="B_15" depart="47.00" departLane="E7_0" departPos="2.10" departSpeed="10.68" departDelay="0.00" arrival="604.00" arrivalLane="E10_0" arrivalPos="26.86" arrivalSpeed="10.50" duration="557.00" routeLength="6037.61" waitingTime="29.00" waitingCount="5" stopTime="0.00" timeLoss="132.20" rerouteNo="1" devices="tripinfo_B_15" vType="typeB" speedFactor="1.02" vaporized=""/>
    <tripinfo id="B_16" depart="51.00" departLane="E7_0" departPos="2.10" departSpeed="9.34" departDelay="0.00" arrival="608.00" arrivalLane="E9_0" arrivalPos="25.59" arrivalSpeed="10.50" duration="557.00" routeLength="6036.58" waitingTime="30.00" waitingCount="6" stopTime="0.00" timeLoss="128.98" rerouteNo="1" devices="tripinfo_B_16" vType="typeB" speedFactor="1.02" vaporized=""/>
    <tripinfo id="B_17" depart="54.00" departLane="E7_0" departPos="2.10" departSpeed="10.81" departDelay="0.00" arrival="610.00" arrivalLane="E9_0" arrivalPos="25.59" arrivalSpeed="12.00" duration="556.00" routeLength="6036.58" waitingTime="30.00" waitingCount="6" stopTime="0.00" timeLoss="62.63" rerouteNo="1" devices="tripinfo_B_17" vType="typeB" speedFactor="0.88" vaporized=""/>
    <tripinfo id="C_17" depart="38.00" departLane="E8_0" departPos="2.10" departSpeed="1.30" departDelay="2.00" arrival="612.00" arrivalLane="E10_0" arrivalPos="26.86" arrivalSpeed="10.50" duration="574.00" routeLength="6035.84" waitingTime="36.00" waitingCount="2" stopTime="0.00" timeLoss="175.41" rerouteNo="0" devices="tripinfo_C_17" vType="typeC" speedFactor="1.09" vaporized=""/>
    <tripinfo id="C_18" depart="40.00" departLane="E8_0" departPos="2.10" departSpeed="1.16" departDelay="3.00" arrival="614.00" arrivalLane="E10_0" arrivalPos="26.86" arrivalSpeed="12.00" duration="574.00" routeLength="6035.84" waitingTime="36.00" waitingCount="2" stopTime="0.00" timeLoss="156.29" rerouteNo="0" devices="tripinfo_C_18" vType="typeC" speedFactor="1.04" vaporized=""/>
    <tripinfo id="B_18" depart="58.00" departLane="E7_0" departPos="2.10" departSpeed="4.96" departDelay="0.00" arrival="615.00" arrivalLane="E9_0" arrivalPos="25.59" arrivalSpeed="10.50" duration="557.00" routeLength="6036.58" waitingTime="31.00" waitingCount="7" stopTime="0.00" timeLoss="81.63" rerouteNo="1" devices="tripinfo_B_18" vType="typeB" speedFactor="0.91" vaporized=""/>
    <tripinfo id="C_19" depart="42.00" departLane="E8_0" departPos="2.10" departSpeed="3.32" departDelay="3.00" arrival="616.00" arrivalLane="E10_0" arrivalPos="26.86" arrivalSpeed="11.79" duration="574.00" routeLength="6035.84" waitingTime="36.00" waitingCount="2" stopTime="0.00" timeLoss="89.93" rerouteNo="0" devices="tripinfo_C_19" vType="typeC" speedFactor="0.90" vaporized=""/>
    <tripinfo id="B_19" depart="59.00" departLane="E7_0" departPos="2.10" departSpeed="5.12" departDelay="0.00" arrival="617.00" arrivalLane="E9_0" arrivalPos="25.59" arrivalSpeed="12.00" duration="558.00" routeLength="6036.58" waitingTime="31.00" waitingCount="7" stopTime="0.00" timeLoss="132.11" rerouteNo="1" devices="tripinfo_B_19" vType="typeB" speedFactor="1.02" vaporized=""/>
    <tripinfo id="C_20" depart="44.00" departLane="E8_0" departPos="2.10" departSpeed="0.28" departDelay="4.00" arrival="618.00" arrivalLane="E10_0" arrivalPos="26.86" arrivalSpeed="11.38" duration="574.00" routeLength="6035.84" waitingTime="36.00" waitingCount="2" stopTime="0.00" timeLoss="61.47" rerouteNo="0" devices="tripinfo_C_20" vType="typeC" speedFactor="0.85" vaporized=""/>
    <tripinfo id="C_21" depart="46.00" departLane="E8_0" departPos="2.10" departSpeed="1.84" departDelay="5.00" arrival="619.00" arrivalLane="E10_0" arrivalPos="26.86" arrivalSpeed="11.66" duration="573.00" routeLength="6035.84" waitingTime="36.00" waitingCount="2" stopTime="0.00" timeLoss="200.45" rerouteNo="0" devices="tripinfo_C_21" vType="typeC" speedFactor="1.17" vaporized=""/>
    <tripinfo id="C_22" depart="48.00" departLane="E8_0" departPos="2.10" departSpeed="2.02" departDelay="4.00" arrival="621.00" arrivalLane="E10_0" arrivalPos="26.86" arrivalSpeed="11.86" duration="573.00" routeLength="6035.84" waitingTime="36.00" waitingCount="2" stopTime="0.00" timeLoss="175.55" rerouteNo="0" devices="tripinfo_C_22" vType="typeC" speedFactor="1.10" vaporized=""/>
    <tripinfo id="B_20" depart="62.00" departLane="E7_0" departPos="2.10" departSpeed="3.79" departDelay="0.00" arrival="622.00" arrivalLane="E9_0" arrivalPos="25.59" arrivalSpeed="10.50" duration="560.00" routeLength="6036.58" waitingTime="32.00" waitingCount="8" stopTime="0.00" timeLoss="118.57" rerouteNo="1" devices="tripinfo_B_20" vType="typeB" speedFactor="0.98" vaporized=""/>
    <tripinfo id="C_23" depart="50.00" departLane="E8_0" departPos="2.10" departSpeed="2.27" departDelay="5.00" arrival="624.00" arrivalLane="E10_0" arrivalPos="26.86" arrivalSpeed="11.77" duration="574.00" routeLength="6035.84" waitingTime="36.00" waitingCount="2" stopTime="0.00" timeLoss="88.93" rerouteNo="0" devices="tripinfo_C_23" vType="typeC" speedFactor="0.90" vaporized=""/>
    <tripinfo id="B_21" depart="72.00" departLane="E7_0" departPos="2.10" departSpeed="10.72" departDelay="0.00" arrival="624.00" arrivalLane="E9_0" arrivalPos="25.59" arrivalSpeed="12.00" duration="552.00" routeLength="6036.58" waitingTime="32.00" waitingCount="8" stopTime="0.00" timeLoss="101.84" rerouteNo="1" devices="tripinfo_B_21" vType="typeB" speedFactor="0.97" vaporized=""/>
    <tripinfo id="C_24" depart="52.00" departLane="E8_0" departPos="2.10" departSpeed="2.66" departDelay="5.00" arrival="625.00" arrivalLane="E10_0" arrivalPos="26.86" arrivalSpeed="10.84" duration="573.00" routeLength="6035.84" waitingTime="36.00" waitingCount="2" stopTime="0.00" timeLoss="124.00" rerouteNo="0" devices="tripinfo_C_24" vType="typeC" speedFactor="0.97" vaporized=""/>
    <tripinfo id="C_25" depart="54.00" departLane="E8_0" departPos="2.10" departSpeed="3.32" departDelay="6.00" arrival="627.00" arrivalLane="E10_0" arrivalPos="26.86" arrivalSpeed="11.99" duration="573.00" routeLength="6035.84" waitingTime="36.00" waitingCount="2" stopTime="0.00" timeLoss="183.87" rerouteNo="0" devices="tripinfo_C_25" vType="typeC" speedFactor="1.12" vaporized=""/>
    <tripinfo id="C_26" depart="56.00" departLane="E8_0" departPos="2.10" departSpeed="4.42" departDelay="3.00" arrival="629.00" arrivalLane="E10_0" arrivalPos="26.86" arrivalSpeed="10.59" duration="573.00" routeLength="6035.84" waitingTime="36.00" waitingCount="2" stopTime="0.00" timeLoss="108.79" rerouteNo="0" devices="tripinfo_C_26" vType="typeC" speedFactor="0.94" vaporized=""/>
    <tripinfo id="B_22" depart="74.00" departLane="E7_0" departPos="2.10" departSpeed="8.93" departDelay="0.00" arrival="629.00" arrivalLane="E9_0" arrivalPos="25.59" arrivalSpeed="10.50" duration="555.00" routeLength="6036.58" waitingTime="33.00" waitingCount="9" stopTime="0.00" timeLoss="109.52" rerouteNo="1" devices="tripinfo_B_22" vType="typeB" speedFactor="0.98" vaporized=""/>
    <tripinfo id="A_22" depart="49.00" departLane="E6_0" departPos="2.10" departSpeed="4.66" departDelay="1.00" arrival="637.00" arrivalLane="E9_0" arrivalPos="25.59" arrivalSpeed="10.50" duration="588.00" routeLength="6035.74" waitingTime="68.00" waitingCount="6" stopTime="0.00" timeLoss="186.11" rerouteNo="0" devices="tripinfo_A_22" vType="typeA" speedFactor="1.08" vaporized=""/>
    <tripinfo id="B_23" depart="75.00" departLane="E7_0" departPos="2.10" departSpeed="6.77" departDelay="0.00" arrival="637.00" arrivalLane="E10_0" arrivalPos="26.86" arrivalSpeed="10.50" duration="562.00" routeLength="6037.61" waitingTime="38.00" waitingCount="10" stopTime="0.00" timeLoss="127.94" rerouteNo="1" devices="tripinfo_B_23" vType="typeB" speedFactor="1.00" vaporized=""/>
    <tripinfo id="A_23" depart="52.00" departLane="E6_0" departPos="2.10" departSpeed="8.99" departDelay="0.00" arrival="639.00" arrivalLane="E9_0" arrivalPos="25.59" arrivalSpeed="12.00" duration="587.00" routeLength="6035.74" waitingTime="68.00" waitingCount="6" stopTime="0.00" timeLoss="145.63" rerouteNo="0" devices="tripinfo_A_23" vType="typeA" speedFactor="0.99" vaporized=""/>
    <tripinfo id="B_24" depart="76.00" departLane="E7_0" departPos="2.10" departSpeed="5.76" departDelay="0.00" arrival="639.00" arrivalLane="E10_0" arrivalPos="26.86" arrivalSpeed="12.00" duration="563.00" routeLength="6037.61" waitingTime="38.00" waitingCount="10" stopTime="0.00" timeLoss="130.70" rerouteNo="1" devices="tripinfo_B_24" vType="typeB" speedFactor="1.01" vaporized=""/>
    <tripinfo id="A_24" depart="57.00" departLane="E6_0" departPos="2.10" departSpeed="0.54" departDelay="0.00" arrival="644.00" arrivalLane="E9_0" arrivalPos="25.59" arrivalSpeed="10.50" duration="587.00" routeLength="6035.74" waitingTime="69.00" waitingCount="7" stopTime="0.00" timeLoss="107.27" rerouteNo="0" devices="tripinfo_A_24" vType="typeA" speedFactor="0.91" vaporized=""/>
    <tripinfo id="B_25" depart="78.00" departLane="E7_0" departPos="2.10" departSpeed="9.25" departDelay="0.00" arrival="644.00" arrivalLane="E10_0" arrivalPos="26.86" arrivalSpeed="10.50" duration="566.00" routeLength="6037.61" waitingTime="39.00" waitingCount="11" stopTime="0.00" timeLoss="138.33" rerouteNo="1" devices="tripinfo_B_25" vType="typeB" speedFactor="1.02" vaporized=""/>