<?xml version="1.0" encoding="UTF-8"?>

<!-- generated on 2022-01-24 02:10:45 by Eclipse SUMO GUI Version v1_11_0+0661-437598ee861
<configuration xmlns:xsi="http://www.w3.org/2001/XMLSchema-instance" xsi:noNamespaceSchemaLocation="http://sumo.dlr.de/xsd/sumoConfiguration.xsd">

    <input>
        <net-file value="sumo_data/laneMerging3.net.xml"/>
        <route-files value="sumo_data/laneMerging.rou.xml"/>
        <additional-files value="sumo_data/laneMerging.add.xml"/>
    </input>

    <output>
        <tripinfo-output value="sumo_data/tripinfo_dp.xml"/>
    </output>

    <report>
        <no-warnings value="true"/>
        <duration-log.disable value="true"/>
        <no-step-log value="true"/>
    </report>

    <traci_server>
        <remote-port value="54111"/>
    </traci_server>

    <gui_only>
        <gui-settings-file value="sumo_data/laneMerging.view.xml"/>
        <start value="true"/>
    </gui_only>

</configuration>
-->

<tripinfos xmlns:xsi="http://www.w3.org/2001/XMLSchema-instance" xsi:noNamespaceSchemaLocation="http://sumo.dlr.de/xsd/tripinfo_file.xsd">
    <tripinfo id="C_1" depart="2.00" departLane="C_0" departPos="2.10" departSpeed="7.39" departDelay="0.00" arrival="406.00" arrivalLane="Y_0" arrivalPos="20.00" arrivalSpeed="12.71" duration="404.00" routeLength="6028.87" waitingTime="0.00" waitingCount="0" stopTime="0.00" timeLoss="2.12" rerouteNo="0" devices="tripinfo_C_1" vType="typeC" speedFactor="1.08" vaporized=""/>
    <tripinfo id="A_1" depart="1.00" departLane="A_0" departPos="2.10" departSpeed="13.12" departDelay="0.00" arrival="413.00" arrivalLane="X_0" arrivalPos="20.00" arrivalSpeed="12.91" duration="412.00" routeLength="6029.86" waitingTime="0.00" waitingCount="0" stopTime="0.00" timeLoss="0.93" rerouteNo="0" devices="tripinfo_A_1" vType="typeA" speedFactor="1.06" vaporized=""/>
    <tripinfo id="C_2" depart="3.00" departLane="C_0" departPos="2.10" departSpeed="7.99" departDelay="0.00" arrival="428.00" arrivalLane="Y_0" arrivalPos="20.00" arrivalSpeed="12.24" duration="425.00" routeLength="6028.87" waitingTime="0.00" waitingCount="0" stopTime="0.00" timeLoss="2.20" rerouteNo="0" devices="tripinfo_C_2" vType="typeC" speedFactor="1.03" vaporized=""/>
    <tripinfo id="A_2" depart="2.00" departLane="A_0" departPos="2.10" departSpeed="0.64" departDelay="0.00" arrival="437.00" arrivalLane="X_0" arrivalPos="20.00" arrivalSpeed="12.45" duration="435.00" routeLength="6029.86" waitingTime="0.00" waitingCount="0" stopTime="0.00" timeLoss="4.68" rerouteNo="0" devices="tripinfo_A_2" vType="typeA" speedFactor="1.01" vaporized=""/>
    <tripinfo id="A_3" depart="9.00" departLane="A_0" departPos="2.10" departSpeed="3.85" departDelay="0.00" arrival="439.00" arrivalLane="X_0" arrivalPos="20.00" arrivalSpeed="11.97" duration="430.00" routeLength="6029.86" waitingTime="0.00" waitingCount="0" stopTime="0.00" timeLoss="14.95" rerouteNo="0" devices="tripinfo_A_3" vType="typeA" speedFactor="1.05" vaporized=""/>
    <tripinfo id="A_4" depart="11.00" departLane="A_0" departPos="2.10" departSpeed="4.43" departDelay="0.00" arrival="453.00" arrivalLane="X_0" arrivalPos="20.00" arrivalSpeed="12.27" duration="442.00" routeLength="6029.86" waitingTime="0.00" waitingCount="0" stopTime="0.00" timeLoss="2.65" rerouteNo="0" devices="tripinfo_A_4" vType="typeA" speedFactor="0.99" vaporized=""/>
    <tripinfo id="B_1" depart="1.00" departLane="B_0" departPos="2.10" departSpeed="9.29" departDelay="0.00" arrival="464.00" arrivalLane="Y_0" arrivalPos="20.00" arrivalSpeed="13.03" duration="463.00" routeLength="6030.79" waitingTime="0.00" waitingCount="0" stopTime="0.00" timeLoss="0.23" rerouteNo="1" devices="tripinfo_B_1" vType="typeB" speedFactor="0.94" vaporized=""/>
    <tripinfo id="B_2" depart="5.00" departLane="B_0" departPos="2.10" departSpeed="10.80" departDelay="0.00" arrival="466.00" arrivalLane="X_0" arrivalPos="20.00" arrivalSpeed="14.53" duration="461.00" routeLength="6030.72" waitingTime="0.00" waitingCount="0" stopTime="0.00" timeLoss="44.91" rerouteNo="1" devices="tripinfo_B_2" vType="typeB" speedFactor="1.05" vaporized=""/>
    <tripinfo id="B_3" depart="6.00" departLane="B_0" departPos="2.10" departSpeed="9.71" departDelay="0.00" arrival="470.00" arrivalLane="X_0" arrivalPos="20.00" arrivalSpeed="13.03" duration="464.00" routeLength="6030.72" waitingTime="0.00" waitingCount="0" stopTime="0.00" timeLoss="0.16" rerouteNo="1" devices="tripinfo_B_3" vType="typeB" speedFactor="0.94" vaporized=""/>
    <tripinfo id="A_5" depart="14.00" departLane="A_0" departPos="2.10" departSpeed="10.59" departDelay="0.00" arrival="480.00" arrivalLane="X_0" arrivalPos="20.00" arrivalSpeed="11.75" duration="466.00" routeLength="6029.86" waitingTime="0.00" waitingCount="0" stopTime="0.00" timeLoss="1.41" rerouteNo="0" devices="tripinfo_A_5" vType="typeA" speedFactor="0.94" vaporized=""/>
    <tripinfo id="A_6" depart="20.00" departLane="A_0" departPos="2.10" departSpeed="3.32" departDelay="0.00" arrival="483.00" arrivalLane="X_0" arrivalPos="20.00" arrivalSpeed="10.75" duration="463.00" routeLength="6029.86" waitingTime="0.00" waitingCount="0" stopTime="0.00" timeLoss="32.47" rerouteNo="0" devices="tripinfo_A_6" vType="typeA" speedFactor="1.01" vaporized=""/>
    <tripinfo id="A_7" depart="22.00" departLane="A_0" departPos="2.10" departSpeed="3.73" departDelay="0.00" arrival="513.00" arrivalLane="X_0" arrivalPos="20.00" arrivalSpeed="11.32" duration="491.00" routeLength="6029.86" waitingTime="0.00" waitingCount="0" stopTime="0.00" timeLoss="2.46" rerouteNo="0" devices="tripinfo_A_7" vType="typeA" speedFactor="0.89" vaporized=""/>
    <tripinfo id="B_4" depart="7.00" departLane="B_0" departPos="2.10" departSpeed="0.07" departDelay="0.00" arrival="518.00" arrivalLane="Y_0" arrivalPos="20.00" arrivalSpeed="11.90" duration="511.00" routeLength="6030.79" waitingTime="0.00" waitingCount="0" stopTime="0.00" timeLoss="3.43" rerouteNo="1" devices="tripinfo_B_4" vType="typeB" speedFactor="0.86" vaporized=""/>
    <tripinfo id="B_5" depart="9.00" departLane="B_0" departPos="2.10" departSpeed="0.94" departDelay="0.00" arrival="520.00" arrivalLane="Y_0" arrivalPos="20.00" arrivalSpeed="11.28" duration="511.00" routeLength="6030.79" waitingTime="0.00" waitingCount="0" stopTime="0.00" timeLoss="124.35" rerouteNo="1" devices="tripinfo_B_5" vType="typeB" speedFactor="1.12" vaporized=""/>
    <tripinfo id="B_6" depart="12.00" departLane="B_0" departPos="2.10" departSpeed="4.02" departDelay="1.00" arrival="522.00" arrivalLane="Y_0" arrivalPos="20.00" arrivalSpeed="11.36" duration="510.00" routeLength="6030.79" waitingTime="0.00" waitingCount="0" stopTime="0.00" timeLoss="41.53" rerouteNo="1" devices="tripinfo_B_6" vType="typeB" speedFactor="0.93" vaporized=""/>
    <tripinfo id="B_7" depart="15.00" departLane="B_0" departPos="2.10" departSpeed="7.70" departDelay="0.00" arrival="525.00" arrivalLane="Y_0" arrivalPos="20.00" arrivalSpeed="12.43" duration="510.00" routeLength="6030.79" waitingTime="0.00" waitingCount="0" stopTime="0.00" timeLoss="82.74" rerouteNo="1" devices="tripinfo_B_7" vType="typeB" speedFactor="1.02" vaporized=""/>
    <tripinfo id="B_8" depart="21.00" departLane="B_0" departPos="2.10" departSpeed="0.44" departDelay="0.00" arrival="527.00" arrivalLane="Y_0" arrivalPos="20.00" arrivalSpeed="12.22" duration="506.00" routeLength="6030.79" waitingTime="0.00" waitingCount="0" stopTime="0.00" timeLoss="59.92" rerouteNo="1" devices="tripinfo_B_8" vType="typeB" speedFactor="0.98" vaporized=""/>
    <tripinfo id="B_9" depart="24.00" departLane="B_0" departPos="2.10" departSpeed="0.39" departDelay="0.00" arrival="529.00" arrivalLane="Y_0" arrivalPos="20.00" arrivalSpeed="12.11" duration="505.00" routeLength="6030.79" waitingTime="0.00" waitingCount="0" stopTime="0.00" timeLoss="46.65" rerouteNo="1" devices="tripinfo_B_9" vType="typeB" speedFactor="0.95" vaporized=""/>
    <tripinfo id="B_10" depart="26.00" departLane="B_0" departPos="2.10" departSpeed="2.03" departDelay="1.00" arrival="531.00" arrivalLane="Y_0" arrivalPos="20.00" arrivalSpeed="12.05" duration="505.00" routeLength="6030.79" waitingTime="0.00" waitingCount="0" stopTime="0.00" timeLoss="120.76" rerouteNo="1" devices="tripinfo_B_10" vType="typeB" speedFactor="1.13" vaporized=""/>
    <tripinfo id="C_3" depart="4.00" departLane="C_0" departPos="2.10" departSpeed="0.50" departDelay="0.00" arrival="537.00" arrivalLane="Y_0" arrivalPos="20.00" arrivalSpeed="10.50" duration="533.00" routeLength="6028.87" waitingTime="2.00" waitingCount="1" stopTime="0.00" timeLoss="9.42" rerouteNo="0" devices="tripinfo_C_3" vType="typeC" speedFactor="0.83" vaporized=""/>
    <tripinfo id="C_4" depart="6.00" departLane="C_0" departPos="2.10" departSpeed="2.25" departDelay="1.00" arrival="538.00" arrivalLane="Y_0" arrivalPos="20.00" arrivalSpeed="10.50" duration="532.00" routeLength="6028.87" waitingTime="2.00" waitingCount="1" stopTime="0.00" timeLoss="41.19" rerouteNo="0" devices="tripinfo_C_4" vType="typeC" speedFactor="0.89" vaporized=""/>
    <tripinfo id="C_5" depart="8.00" departLane="C_0" departPos="2.10" departSpeed="2.63" departDelay="1.00" arrival="540.00" arrivalLane="Y_0" arrivalPos="20.00" arrivalSpeed="11.25" duration="532.00" routeLength="6028.87" waitingTime="2.00" waitingCount="1" stopTime="0.00" timeLoss="133.04" rerouteNo="0" devices="tripinfo_C_5" vType="typeC" speedFactor="1.09" vaporized=""/>
    <tripinfo id="C_6" depart="10.00" departLane="C_0" departPos="2.10" departSpeed="3.26" departDelay="2.00" arrival="542.00" arrivalLane="Y_0" arrivalPos="20.00" arrivalSpeed="11.63" duration="532.00" routeLength="6028.87" waitingTime="2.00" waitingCount="1" stopTime="0.00" timeLoss="107.88" rerouteNo="0" devices="tripinfo_C_6" vType="typeC" speedFactor="1.03" vaporized=""/>
    <tripinfo id="C_7" depart="12.00" departLane="C_0" departPos="2.10" departSpeed="3.75" departDelay="1.00" arrival="544.00" arrivalLane="Y_0" arrivalPos="20.00" arrivalSpeed="10.88" duration="532.00" routeLength="6028.87" waitingTime="2.00" waitingCount="1" stopTime="0.00" timeLoss="36.65" rerouteNo="0" devices="tripinfo_C_7" vType="typeC" speedFactor="0.88" vaporized=""/>
    <tripinfo id="C_8" depart="14.00" departLane="C_0" departPos="2.10" departSpeed="5.80" departDelay="1.00" arrival="546.00" arrivalLane="Y_0" arrivalPos="20.00" arrivalSpeed="11.44" duration="532.00" routeLength="6028.87" waitingTime="2.00" waitingCount="1" stopTime="0.00" timeLoss="69.62" rerouteNo="0" devices="tripinfo_C_8" vType="typeC" speedFactor="0.94" vaporized=""/>
    <tripinfo id="C_9" depart="15.00" departLane="C_0" departPos="2.10" departSpeed="4.30" departDelay="1.00" arrival="548.00" arrivalLane="Y_0" arrivalPos="20.00" arrivalSpeed="11.95" duration="533.00" routeLength="6028.87" waitingTime="2.00" waitingCount="1" stopTime="0.00" timeLoss="157.09" rerouteNo="0" devices="tripinfo_C_9" vType="typeC" speedFactor="1.16" vaporized=""/>
    <tripinfo id="C_10" depart="23.00" departLane="C_0" departPos="2.10" departSpeed="1.93" departDelay="0.00" arrival="550.00" arrivalLane="Y_0" arrivalPos="20.00" arrivalSpeed="11.98" duration="527.00" routeLength="6028.87" waitingTime="2.00" waitingCount="1" stopTime="0.00" timeLoss="28.39" rerouteNo="0" devices="tripinfo_C_10" vType="typeC" speedFactor="0.87" vaporized=""/>
    <tripinfo id="A_8" depart="23.00" departLane="A_0" departPos="2.10" departSpeed="3.59" departDelay="0.00" arrival="553.00" arrivalLane="X_0" arrivalPos="20.00" arrivalSpeed="10.72" duration="530.00" routeLength="6029.86" waitingTime="0.00" waitingCount="0" stopTime="0.00" timeLoss="2.90" rerouteNo="0" devices="tripinfo_A_8" vType="typeA" speedFactor="0.83" vaporized=""/>
    <tripinfo id="A_9" depart="25.00" departLane="A_0" departPos="2.10" departSpeed="4.79" departDelay="1.00" arrival="555.00" arrivalLane="X_0" arrivalPos="20.00" arrivalSpeed="11.58" duration="530.00" routeLength="6029.86" waitingTime="0.00" waitingCount="0" stopTime="0.00" timeLoss="55.39" rerouteNo="0" devices="tripinfo_A_9" vType="typeA" speedFactor="0.92" vaporized=""/>
    <tripinfo id="A_10" depart="26.00" departLane="A_0" departPos="2.10" departSpeed="1.62" departDelay="0.00" arrival="557.00" arrivalLane="X_0" arrivalPos="20.00" arrivalSpeed="11.71" duration="531.00" routeLength="6029.86" waitingTime="0.00" waitingCount="0" stopTime="0.00" timeLoss="63.57" rerouteNo="0" devices="tripinfo_A_10" vType="typeA" speedFactor="0.93" vaporized=""/>
</tripinfos>
