<?xml version="1.0" encoding="UTF-8"?>

<!-- generated on 2022-03-30 05:26:56 by Eclipse SUMO GUI Version 1.9.2
<configuration xmlns:xsi="http://www.w3.org/2001/XMLSchema-instance" xsi:noNamespaceSchemaLocation="http://sumo.dlr.de/xsd/sumoConfiguration.xsd">

    <input>
        <net-file value="sumo_data/laneMerging4.net.xml"/>
        <route-files value="sumo_data/laneMerging.rou.xml"/>
        <additional-files value="sumo_data/laneMerging4.add.xml"/>
    </input>

    <output>
        <tripinfo-output value="sumo_data/tripinfo_dp.xml"/>
    </output>

    <time>
        <step-length value="0.5"/>
    </time>

    <report>
        <no-warnings value="true"/>
        <duration-log.disable value="true"/>
        <no-step-log value="true"/>
    </report>

    <traci_server>
        <remote-port value="57253"/>
    </traci_server>

    <gui_only>
        <gui-settings-file value="sumo_data/laneMerging.view.xml"/>
        <start value="true"/>
        <tracker-interval value="0.5"/>
    </gui_only>

</configuration>
-->

<tripinfos xmlns:xsi="http://www.w3.org/2001/XMLSchema-instance" xsi:noNamespaceSchemaLocation="http://sumo.dlr.de/xsd/tripinfo_file.xsd">
    <tripinfo id="C_1" depart="1.00" departLane="incoming_0" departPos="4.60" departSpeed="0.00" departDelay="0.00" arrival="330.50" arrivalLane="Y_0" arrivalPos="20.00" arrivalSpeed="20.00" duration="329.50" routeLength="6528.21" waitingTime="0.00" waitingCount="0" stopTime="0.00" timeLoss="3.09" rerouteNo="0" devices="tripinfo_C_1" vType="typeC" speedFactor="1.01" vaporized=""/>
    <tripinfo id="A_1" depart="1.00" departLane="incoming_2" departPos="4.60" departSpeed="0.00" departDelay="0.00" arrival="331.00" arrivalLane="X_0" arrivalPos="20.00" arrivalSpeed="20.00" duration="330.00" routeLength="6528.74" waitingTime="0.00" waitingCount="0" stopTime="0.00" timeLoss="3.09" rerouteNo="0" devices="tripinfo_A_1" vType="typeA" speedFactor="1.06" vaporized=""/>
    <tripinfo id="B_1" depart="1.00" departLane="incoming_1" departPos="4.60" departSpeed="0.00" departDelay="0.00" arrival="353.00" arrivalLane="X_0" arrivalPos="20.00" arrivalSpeed="18.77" duration="352.00" routeLength="6528.74" waitingTime="0.00" waitingCount="0" stopTime="0.00" timeLoss="4.08" rerouteNo="1" devices="tripinfo_B_1" vType="typeB" speedFactor="0.94" vaporized=""/>
    <tripinfo id="C_2" depart="3.00" departLane="incoming_0" departPos="4.60" departSpeed="0.00" departDelay="0.00" arrival="354.00" arrivalLane="Y_0" arrivalPos="20.00" arrivalSpeed="20.00" duration="351.00" routeLength="6528.21" waitingTime="0.00" waitingCount="0" stopTime="0.00" timeLoss="24.19" rerouteNo="0" devices="tripinfo_C_2" vType="typeC" speedFactor="1.05" vaporized=""/>
    <tripinfo id="A_2" depart="3.00" departLane="incoming_2" departPos="4.60" departSpeed="0.00" departDelay="1.00" arrival="355.50" arrivalLane="X_0" arrivalPos="20.00" arrivalSpeed="20.00" duration="352.50" routeLength="6528.74" waitingTime="15.50" waitingCount="1" stopTime="0.00" timeLoss="25.72" rerouteNo="0" devices="tripinfo_A_2" vType="typeA" speedFactor="1.08" vaporized=""/>
    <tripinfo id="A_3" depart="5.00" departLane="incoming_2" departPos="4.60" departSpeed="0.00" departDelay="2.00" arrival="357.50" arrivalLane="X_0" arrivalPos="20.00" arrivalSpeed="20.00" duration="352.50" routeLength="6528.74" waitingTime="14.00" waitingCount="2" stopTime="0.00" timeLoss="25.64" rerouteNo="0" devices="tripinfo_A_3" vType="typeA" speedFactor="1.03" vaporized=""/>
    <tripinfo id="A_4" depart="7.00" departLane="incoming_2" departPos="4.60" departSpeed="0.00" departDelay="1.00" arrival="359.50" arrivalLane="X_0" arrivalPos="20.00" arrivalSpeed="20.00" duration="352.50" routeLength="6528.74" waitingTime="12.50" waitingCount="3" stopTime="0.00" timeLoss="25.82" rerouteNo="0" devices="tripinfo_A_4" vType="typeA" speedFactor="1.09" vaporized=""/>
    <tripinfo id="A_5" depart="13.00" departLane="incoming_2" departPos="4.60" departSpeed="0.00" departDelay="0.00" arrival="365.50" arrivalLane="X_0" arrivalPos="20.00" arrivalSpeed="18.72" duration="352.50" routeLength="6528.74" waitingTime="0.00" waitingCount="0" stopTime="0.00" timeLoss="3.42" rerouteNo="0" devices="tripinfo_A_5" vType="typeA" speedFactor="0.94" vaporized=""/>
    <tripinfo id="C_3" depart="5.00" departLane="incoming_0" departPos="4.60" departSpeed="0.00" departDelay="1.00" arrival="386.00" arrivalLane="Y_0" arrivalPos="20.00" arrivalSpeed="17.72" duration="381.00" routeLength="6528.21" waitingTime="0.00" waitingCount="0" stopTime="0.00" timeLoss="12.19" rerouteNo="0" devices="tripinfo_C_3" vType="typeC" speedFactor="0.89" vaporized=""/>
    <tripinfo id="B_2" depart="3.00" departLane="incoming_1" departPos="4.60" departSpeed="0.00" departDelay="0.00" arrival="399.50" arrivalLane="X_0" arrivalPos="20.00" arrivalSpeed="16.62" duration="396.50" routeLength="6528.74" waitingTime="0.00" waitingCount="0" stopTime="0.00" timeLoss="3.41" rerouteNo="1" devices="tripinfo_B_2" vType="typeB" speedFactor="0.83" vaporized=""/>
    <tripinfo id="C_4" depart="7.00" departLane="incoming_0" departPos="4.60" departSpeed="0.00" departDelay="2.00" arrival="400.50" arrivalLane="Y_0" arrivalPos="20.00" arrivalSpeed="17.14" duration="393.50" routeLength="6528.21" waitingTime="0.00" waitingCount="0" stopTime="0.00" timeLoss="12.19" rerouteNo="0" devices="tripinfo_C_4" vType="typeC" speedFactor="0.86" vaporized=""/>
    <tripinfo id="B_3" depart="5.00" departLane="incoming_1" departPos="4.60" departSpeed="0.00" departDelay="0.00" arrival="401.50" arrivalLane="X_0" arrivalPos="20.00" arrivalSpeed="18.76" duration="396.50" routeLength="6528.74" waitingTime="0.00" waitingCount="0" stopTime="0.00" timeLoss="48.22" rerouteNo="1" devices="tripinfo_B_3" vType="typeB" speedFactor="0.94" vaporized=""/>
    <tripinfo id="C_5" depart="9.00" departLane="incoming_0" departPos="4.60" departSpeed="0.00" departDelay="3.00" arrival="403.00" arrivalLane="Y_0" arrivalPos="20.00" arrivalSpeed="18.78" duration="394.00" routeLength="6528.21" waitingTime="0.00" waitingCount="0" stopTime="0.00" timeLoss="67.30" rerouteNo="0" devices="tripinfo_C_5" vType="typeC" speedFactor="1.03" vaporized=""/>
    <tripinfo id="B_4" depart="8.00" departLane="incoming_1" departPos="4.60" departSpeed="0.00" departDelay="0.00" arrival="404.00" arrivalLane="X_0" arrivalPos="20.00" arrivalSpeed="19.30" duration="396.00" routeLength="6528.74" waitingTime="0.00" waitingCount="0" stopTime="0.00" timeLoss="69.10" rerouteNo="1" devices="tripinfo_B_4" vType="typeB" speedFactor="1.05" vaporized=""/>
    <tripinfo id="C_6" depart="11.00" departLane="incoming_0" departPos="4.60" departSpeed="0.00" departDelay="1.00" arrival="406.00" arrivalLane="Y_0" arrivalPos="20.00" arrivalSpeed="18.52" duration="395.00" routeLength="6528.21" waitingTime="0.00" waitingCount="0" stopTime="0.00" timeLoss="65.27" rerouteNo="0" devices="tripinfo_C_6" vType="typeC" speedFactor="0.99" vaporized=""/>
    <tripinfo id="B_5" depart="10.00" departLane="incoming_1" departPos="4.60" departSpeed="0.00" departDelay="0.00" arrival="406.50" arrivalLane="X_0" arrivalPos="20.00" arrivalSpeed="17.74" duration="396.50" routeLength="6528.74" waitingTime="0.00" waitingCount="0" stopTime="0.00" timeLoss="69.83" rerouteNo="1" devices="tripinfo_B_5" vType="typeB" speedFactor="1.12" vaporized=""/>
    <tripinfo id="C_7" depart="13.00" departLane="incoming_0" departPos="4.60" departSpeed="0.00" departDelay="2.00" arrival="408.00" arrivalLane="Y_0" arrivalPos="20.00" arrivalSpeed="17.06" duration="395.00" routeLength="6528.21" waitingTime="0.00" waitingCount="0" stopTime="0.00" timeLoss="23.38" rerouteNo="0" devices="tripinfo_C_7" vType="typeC" speedFactor="0.88" vaporized=""/>
    <tripinfo id="B_6" depart="12.00" departLane="incoming_1" departPos="4.60" departSpeed="0.00" departDelay="1.00" arrival="410.00" arrivalLane="X_0" arrivalPos="20.00" arrivalSpeed="17.28" duration="398.00" routeLength="6528.74" waitingTime="0.00" waitingCount="0" stopTime="0.00" timeLoss="45.52" rerouteNo="1" devices="tripinfo_B_6" vType="typeB" speedFactor="0.93" vaporized=""/>
    <tripinfo id="C_8" depart="15.00" departLane="incoming_0" departPos="4.60" departSpeed="0.00" departDelay="2.00" arrival="410.50" arrivalLane="Y_0" arrivalPos="20.00" arrivalSpeed="18.52" duration="395.50" routeLength="6528.21" waitingTime="0.00" waitingCount="0" stopTime="0.00" timeLoss="68.70" rerouteNo="0" devices="tripinfo_C_8" vType="typeC" speedFactor="1.16" vaporized=""/>
    <tripinfo id="C_9" depart="17.00" departLane="incoming_0" departPos="4.60" departSpeed="0.00" departDelay="3.00" arrival="412.50" arrivalLane="Y_0" arrivalPos="20.00" arrivalSpeed="18.64" duration="395.50" routeLength="6528.21" waitingTime="0.00" waitingCount="0" stopTime="0.00" timeLoss="68.78" rerouteNo="0" devices="tripinfo_C_9" vType="typeC" speedFactor="1.01" vaporized=""/>
    <tripinfo id="B_7" depart="14.00" departLane="incoming_1" departPos="4.60" departSpeed="0.00" departDelay="2.00" arrival="413.50" arrivalLane="X_0" arrivalPos="20.00" arrivalSpeed="16.65" duration="399.50" routeLength="6528.74" waitingTime="0.00" waitingCount="0" stopTime="0.00" timeLoss="52.59" rerouteNo="1" devices="tripinfo_B_7" vType="typeB" speedFactor="0.94" vaporized=""/>
    <tripinfo id="C_10" depart="19.00" departLane="incoming_0" departPos="4.60" departSpeed="0.00" departDelay="4.00" arrival="415.00" arrivalLane="Y_0" arrivalPos="20.00" arrivalSpeed="17.79" duration="396.00" routeLength="6528.21" waitingTime="0.00" waitingCount="0" stopTime="0.00" timeLoss="28.59" rerouteNo="0" devices="tripinfo_C_10" vType="typeC" speedFactor="0.89" vaporized=""/>
    <tripinfo id="B_8" depart="16.00" departLane="incoming_1" departPos="4.60" departSpeed="0.00" departDelay="2.00" arrival="418.00" arrivalLane="X_0" arrivalPos="20.00" arrivalSpeed="16.50" duration="402.00" routeLength="6528.74" waitingTime="0.50" waitingCount="1" stopTime="0.00" timeLoss="75.41" rerouteNo="1" devices="tripinfo_B_8" vType="typeB" speedFactor="1.02" vaporized=""/>
    <tripinfo id="B_9" depart="18.00" departLane="incoming_1" departPos="4.60" departSpeed="0.00" departDelay="3.00" arrival="420.00" arrivalLane="X_0" arrivalPos="20.00" arrivalSpeed="18.12" duration="402.00" routeLength="6528.74" waitingTime="0.00" waitingCount="0" stopTime="0.00" timeLoss="66.89" rerouteNo="1" devices="tripinfo_B_9" vType="typeB" speedFactor="0.98" vaporized=""/>
    <tripinfo id="B_10" depart="20.00" departLane="incoming_1" departPos="4.60" departSpeed="0.00" departDelay="4.00" arrival="422.00" arrivalLane="X_0" arrivalPos="20.00" arrivalSpeed="17.45" duration="402.00" routeLength="6528.74" waitingTime="0.00" waitingCount="0" stopTime="0.00" timeLoss="27.71" rerouteNo="1" devices="tripinfo_B_10" vType="typeB" speedFactor="0.87" vaporized=""/>
    <tripinfo id="A_6" depart="16.00" departLane="incoming_2" departPos="4.60" departSpeed="0.00" departDelay="0.00" arrival="423.50" arrivalLane="X_0" arrivalPos="20.00" arrivalSpeed="16.51" duration="407.50" routeLength="6528.74" waitingTime="0.00" waitingCount="0" stopTime="0.00" timeLoss="12.07" rerouteNo="0" devices="tripinfo_A_6" vType="typeA" speedFactor="0.83" vaporized=""/>
    <tripinfo id="A_7" depart="21.00" departLane="incoming_2" departPos="4.60" departSpeed="0.00" departDelay="0.00" arrival="425.50" arrivalLane="X_0" arrivalPos="20.00" arrivalSpeed="18.34" duration="404.50" routeLength="6528.74" waitingTime="0.00" waitingCount="0" stopTime="0.00" timeLoss="48.41" rerouteNo="0" devices="tripinfo_A_7" vType="typeA" speedFactor="0.92" vaporized=""/>
    <tripinfo id="A_8" depart="24.00" departLane="incoming_2" departPos="4.60" departSpeed="0.00" departDelay="0.00" arrival="427.50" arrivalLane="X_0" arrivalPos="20.00" arrivalSpeed="18.98" duration="403.50" routeLength="6528.74" waitingTime="0.00" waitingCount="0" stopTime="0.00" timeLoss="59.36" rerouteNo="0" devices="tripinfo_A_8" vType="typeA" speedFactor="0.95" vaporized=""/>
    <tripinfo id="A_9" depart="28.00" departLane="incoming_2" departPos="4.60" departSpeed="0.00" departDelay="0.00" arrival="429.50" arrivalLane="X_0" arrivalPos="20.00" arrivalSpeed="20.00" duration="401.50" routeLength="6528.74" waitingTime="0.00" waitingCount="0" stopTime="0.00" timeLoss="74.93" rerouteNo="0" devices="tripinfo_A_9" vType="typeA" speedFactor="1.13" vaporized=""/>
    <tripinfo id="A_10" depart="30.00" departLane="incoming_2" departPos="4.60" departSpeed="0.00" departDelay="1.00" arrival="431.50" arrivalLane="X_0" arrivalPos="20.00" arrivalSpeed="18.63" duration="401.50" routeLength="6528.74" waitingTime="0.00" waitingCount="0" stopTime="0.00" timeLoss="50.96" rerouteNo="0" devices="tripinfo_A_10" vType="typeA" speedFactor="0.93" vaporized=""/>
</tripinfos>
