<?xml version="1.0" encoding="UTF-8"?>

<!-- generated on 2022-01-03 09:47:34 by Eclipse SUMO GUI Version 1.9.2
<configuration xmlns:xsi="http://www.w3.org/2001/XMLSchema-instance" xsi:noNamespaceSchemaLocation="http://sumo.dlr.de/xsd/sumoConfiguration.xsd">

    <input>
        <net-file value="sumo_data/laneMerging2.net.xml"/>
        <route-files value="sumo_data/laneMerging.rou.xml"/>
        <additional-files value="sumo_data/laneMerging.add.xml"/>
    </input>

    <output>
        <tripinfo-output value="sumo_data/tripinfo_dp.xml"/>
    </output>

    <report>
        <no-warnings value="true"/>
        <duration-log.disable value="true"/>
        <no-step-log value="true"/>
    </report>

    <traci_server>
        <remote-port value="59057"/>
    </traci_server>

    <gui_only>
        <gui-settings-file value="sumo_data/laneMerging.view.xml"/>
        <start value="true"/>
    </gui_only>

</configuration>
-->

<tripinfos xmlns:xsi="http://www.w3.org/2001/XMLSchema-instance" xsi:noNamespaceSchemaLocation="http://sumo.dlr.de/xsd/tripinfo_file.xsd">
    <tripinfo id="B_1" depart="6.00" departLane="B_0" departPos="2.10" departSpeed="0.62" departDelay="0.00" arrival="432.00" arrivalLane="X_0" arrivalPos="25.59" arrivalSpeed="14.31" duration="426.00" routeLength="6036.58" waitingTime="0.00" waitingCount="0" stopTime="0.00" timeLoss="3.89" rerouteNo="1" devices="tripinfo_B_1" vType="typeB" speedFactor="1.03" vaporized=""/>
    <tripinfo id="B_2" depart="18.00" departLane="B_0" departPos="2.10" departSpeed="3.60" departDelay="0.00" arrival="436.00" arrivalLane="X_0" arrivalPos="25.59" arrivalSpeed="14.53" duration="418.00" routeLength="6036.58" waitingTime="0.00" waitingCount="0" stopTime="0.00" timeLoss="2.38" rerouteNo="1" devices="tripinfo_B_2" vType="typeB" speedFactor="1.05" vaporized=""/>
    <tripinfo id="C_1" depart="4.00" departLane="C_0" departPos="2.10" departSpeed="0.64" departDelay="0.00" arrival="441.00" arrivalLane="Y_0" arrivalPos="26.86" arrivalSpeed="12.67" duration="437.00" routeLength="6035.84" waitingTime="0.00" waitingCount="0" stopTime="0.00" timeLoss="5.23" rerouteNo="0" devices="tripinfo_C_1" vType="typeC" speedFactor="1.01" vaporized=""/>
    <tripinfo id="B_3" depart="23.00" departLane="B_0" departPos="2.10" departSpeed="0.07" departDelay="0.00" arrival="534.00" arrivalLane="X_0" arrivalPos="25.59" arrivalSpeed="11.90" duration="511.00" routeLength="6036.58" waitingTime="0.00" waitingCount="0" stopTime="0.00" timeLoss="3.43" rerouteNo="1" devices="tripinfo_B_3" vType="typeB" speedFactor="0.86" vaporized=""/>
    <tripinfo id="B_4" depart="25.00" departLane="B_0" departPos="2.10" departSpeed="1.21" departDelay="1.00" arrival="535.00" arrivalLane="Y_0" arrivalPos="26.86" arrivalSpeed="14.26" duration="510.00" routeLength="6037.61" waitingTime="0.00" waitingCount="0" stopTime="0.00" timeLoss="86.02" rerouteNo="1" devices="tripinfo_B_4" vType="typeB" speedFactor="1.03" vaporized=""/>
    <tripinfo id="B_5" depart="30.00" departLane="B_0" departPos="2.10" departSpeed="4.13" departDelay="0.00" arrival="536.00" arrivalLane="X_0" arrivalPos="25.59" arrivalSpeed="15.60" duration="506.00" routeLength="6036.58" waitingTime="0.00" waitingCount="0" stopTime="0.00" timeLoss="118.79" rerouteNo="1" devices="tripinfo_B_5" vType="typeB" speedFactor="1.12" vaporized=""/>
    <tripinfo id="C_2" depart="6.00" departLane="C_0" departPos="2.10" departSpeed="2.46" departDelay="1.00" arrival="542.00" arrivalLane="Y_0" arrivalPos="26.86" arrivalSpeed="10.50" duration="536.00" routeLength="6035.84" waitingTime="96.00" waitingCount="1" stopTime="0.00" timeLoss="134.00" rerouteNo="0" devices="tripinfo_C_2" vType="typeC" speedFactor="1.08" vaporized=""/>
    <tripinfo id="C_3" depart="19.00" departLane="C_0" departPos="2.10" departSpeed="6.71" departDelay="0.00" arrival="544.00" arrivalLane="Y_0" arrivalPos="26.86" arrivalSpeed="11.67" duration="525.00" routeLength="6035.84" waitingTime="26.00" waitingCount="1" stopTime="0.00" timeLoss="33.18" rerouteNo="0" devices="tripinfo_C_3" vType="typeC" speedFactor="0.89" vaporized=""/>
    <tripinfo id="C_4" depart="23.00" departLane="C_0" departPos="2.10" departSpeed="10.20" departDelay="0.00" arrival="545.00" arrivalLane="Y_0" arrivalPos="26.86" arrivalSpeed="11.25" duration="522.00" routeLength="6035.84" waitingTime="26.00" waitingCount="1" stopTime="0.00" timeLoss="122.91" rerouteNo="0" devices="tripinfo_C_4" vType="typeC" speedFactor="1.09" vaporized=""/>
    <tripinfo id="C_5" depart="37.00" departLane="C_0" departPos="2.10" departSpeed="0.83" departDelay="0.00" arrival="547.00" arrivalLane="Y_0" arrivalPos="26.86" arrivalSpeed="11.02" duration="510.00" routeLength="6035.84" waitingTime="26.00" waitingCount="1" stopTime="0.00" timeLoss="70.82" rerouteNo="0" devices="tripinfo_C_5" vType="typeC" speedFactor="0.99" vaporized=""/>
    <tripinfo id="C_6" depart="39.00" departLane="C_0" departPos="2.10" departSpeed="2.74" departDelay="0.00" arrival="550.00" arrivalLane="Y_0" arrivalPos="26.86" arrivalSpeed="12.00" duration="511.00" routeLength="6035.84" waitingTime="26.00" waitingCount="1" stopTime="0.00" timeLoss="40.50" rerouteNo="0" devices="tripinfo_C_6" vType="typeC" speedFactor="0.93" vaporized=""/>
    <tripinfo id="B_6" depart="59.00" departLane="B_0" departPos="2.10" departSpeed="4.81" departDelay="0.00" arrival="559.00" arrivalLane="X_0" arrivalPos="25.59" arrivalSpeed="12.12" duration="500.00" routeLength="6036.58" waitingTime="0.00" waitingCount="0" stopTime="0.00" timeLoss="1.18" rerouteNo="1" devices="tripinfo_B_6" vType="typeB" speedFactor="0.87" vaporized=""/>
    <tripinfo id="A_1" depart="1.00" departLane="A_0" departPos="2.10" departSpeed="13.12" departDelay="0.00" arrival="566.00" arrivalLane="X_0" arrivalPos="25.59" arrivalSpeed="10.50" duration="565.00" routeLength="6035.74" waitingTime="148.00" waitingCount="1" stopTime="0.00" timeLoss="154.59" rerouteNo="0" devices="tripinfo_A_1" vType="typeA" speedFactor="1.06" vaporized=""/>
    <tripinfo id="A_2" depart="2.00" departLane="A_0" departPos="2.10" departSpeed="9.29" departDelay="0.00" arrival="568.00" arrivalLane="X_0" arrivalPos="25.59" arrivalSpeed="12.00" duration="566.00" routeLength="6035.74" waitingTime="95.00" waitingCount="1" stopTime="0.00" timeLoss="101.74" rerouteNo="0" devices="tripinfo_A_2" vType="typeA" speedFactor="0.94" vaporized=""/>
    <tripinfo id="B_7" depart="65.00" departLane="B_0" departPos="2.10" departSpeed="6.93" departDelay="0.00" arrival="573.00" arrivalLane="X_0" arrivalPos="25.59" arrivalSpeed="10.50" duration="508.00" routeLength="6036.58" waitingTime="8.00" waitingCount="1" stopTime="0.00" timeLoss="34.00" rerouteNo="1" devices="tripinfo_B_7" vType="typeB" speedFactor="0.92" vaporized=""/>
    <tripinfo id="B_8" depart="74.00" departLane="B_0" departPos="2.10" departSpeed="3.12" departDelay="0.00" arrival="575.00" arrivalLane="Y_0" arrivalPos="26.86" arrivalSpeed="12.00" duration="501.00" routeLength="6037.61" waitingTime="8.00" waitingCount="1" stopTime="0.00" timeLoss="42.18" rerouteNo="1" devices="tripinfo_B_8" vType="typeB" speedFactor="0.95" vaporized=""/>
    <tripinfo id="B_9" depart="88.00" departLane="B_0" departPos="2.10" departSpeed="0.51" departDelay="0.00" arrival="576.00" arrivalLane="X_0" arrivalPos="25.59" arrivalSpeed="12.00" duration="488.00" routeLength="6036.58" waitingTime="8.00" waitingCount="1" stopTime="0.00" timeLoss="103.68" rerouteNo="1" devices="tripinfo_B_9" vType="typeB" speedFactor="1.13" vaporized=""/>
    <tripinfo id="B_10" depart="91.00" departLane="B_0" departPos="2.10" departSpeed="3.90" departDelay="0.00" arrival="578.00" arrivalLane="X_0" arrivalPos="25.59" arrivalSpeed="11.25" duration="487.00" routeLength="6036.58" waitingTime="8.00" waitingCount="1" stopTime="0.00" timeLoss="20.28" rerouteNo="1" devices="tripinfo_B_10" vType="typeB" speedFactor="0.93" vaporized=""/>
    <tripinfo id="C_7" depart="50.00" departLane="C_0" departPos="2.10" departSpeed="8.25" departDelay="0.00" arrival="580.00" arrivalLane="Y_0" arrivalPos="26.86" arrivalSpeed="10.50" duration="530.00" routeLength="6035.84" waitingTime="52.00" waitingCount="2" stopTime="0.00" timeLoss="154.22" rerouteNo="0" devices="tripinfo_C_7" vType="typeC" speedFactor="1.16" vaporized=""/>
    <tripinfo id="C_8" depart="52.00" departLane="C_0" departPos="2.10" departSpeed="8.89" departDelay="0.00" arrival="582.00" arrivalLane="Y_0" arrivalPos="26.86" arrivalSpeed="12.00" duration="530.00" routeLength="6035.84" waitingTime="52.00" waitingCount="2" stopTime="0.00" timeLoss="98.53" rerouteNo="0" devices="tripinfo_C_8" vType="typeC" speedFactor="1.01" vaporized=""/>
    <tripinfo id="C_9" depart="53.00" departLane="C_0" departPos="2.10" departSpeed="9.57" departDelay="0.00" arrival="583.00" arrivalLane="Y_0" arrivalPos="26.86" arrivalSpeed="10.89" duration="530.00" routeLength="6035.84" waitingTime="52.00" waitingCount="2" stopTime="0.00" timeLoss="83.65" rerouteNo="0" devices="tripinfo_C_9" vType="typeC" speedFactor="0.98" vaporized=""/>
    <tripinfo id="A_3" depart="17.00" departLane="A_0" departPos="2.10" departSpeed="8.58" departDelay="0.00" arrival="584.00" arrivalLane="X_0" arrivalPos="25.59" arrivalSpeed="10.50" duration="567.00" routeLength="6035.74" waitingTime="34.00" waitingCount="2" stopTime="0.00" timeLoss="43.53" rerouteNo="0" devices="tripinfo_A_3" vType="typeA" speedFactor="0.83" vaporized=""/>
    <tripinfo id="A_4" depart="20.00" departLane="A_0" departPos="2.10" departSpeed="9.71" departDelay="0.00" arrival="586.00" arrivalLane="X_0" arrivalPos="25.59" arrivalSpeed="12.00" duration="566.00" routeLength="6035.74" waitingTime="34.00" waitingCount="2" stopTime="0.00" timeLoss="101.54" rerouteNo="0" devices="tripinfo_A_4" vType="typeA" speedFactor="0.94" vaporized=""/>
    <tripinfo id="C_10" depart="56.00" departLane="C_0" departPos="2.10" departSpeed="10.18" departDelay="0.00" arrival="586.00" arrivalLane="Y_0" arrivalPos="26.86" arrivalSpeed="11.18" duration="530.00" routeLength="6035.84" waitingTime="0.00" waitingCount="0" stopTime="0.00" timeLoss="2.40" rerouteNo="0" devices="tripinfo_C_10" vType="typeC" speedFactor="0.83" vaporized=""/>
    <tripinfo id="A_5" depart="26.00" departLane="A_0" departPos="2.10" departSpeed="8.24" departDelay="0.00" arrival="587.00" arrivalLane="X_0" arrivalPos="25.59" arrivalSpeed="11.25" duration="561.00" routeLength="6035.74" waitingTime="34.00" waitingCount="2" stopTime="0.00" timeLoss="145.55" rerouteNo="0" devices="tripinfo_A_5" vType="typeA" speedFactor="1.05" vaporized=""/>
    <tripinfo id="A_6" depart="43.00" departLane="A_0" departPos="2.10" departSpeed="3.93" departDelay="0.00" arrival="589.00" arrivalLane="X_0" arrivalPos="25.59" arrivalSpeed="11.63" duration="546.00" routeLength="6035.74" waitingTime="34.00" waitingCount="2" stopTime="0.00" timeLoss="50.65" rerouteNo="0" devices="tripinfo_A_6" vType="typeA" speedFactor="0.88" vaporized=""/>
    <tripinfo id="A_7" depart="48.00" departLane="A_0" departPos="2.10" departSpeed="8.94" departDelay="0.00" arrival="591.00" arrivalLane="X_0" arrivalPos="25.59" arrivalSpeed="11.81" duration="543.00" routeLength="6035.74" waitingTime="34.00" waitingCount="2" stopTime="0.00" timeLoss="80.70" rerouteNo="0" devices="tripinfo_A_7" vType="typeA" speedFactor="0.94" vaporized=""/>
    <tripinfo id="A_8" depart="50.00" departLane="A_0" departPos="2.10" departSpeed="0.60" departDelay="0.00" arrival="593.00" arrivalLane="X_0" arrivalPos="25.59" arrivalSpeed="11.91" duration="543.00" routeLength="6035.74" waitingTime="34.00" waitingCount="2" stopTime="0.00" timeLoss="78.11" rerouteNo="0" devices="tripinfo_A_8" vType="typeA" speedFactor="0.94" vaporized=""/>
    <tripinfo id="A_9" depart="52.00" departLane="A_0" departPos="2.10" departSpeed="2.40" departDelay="0.00" arrival="595.00" arrivalLane="X_0" arrivalPos="25.59" arrivalSpeed="11.95" duration="543.00" routeLength="6035.74" waitingTime="34.00" waitingCount="2" stopTime="0.00" timeLoss="115.49" rerouteNo="0" devices="tripinfo_A_9" vType="typeA" speedFactor="1.02" vaporized=""/>
    <tripinfo id="A_10" depart="55.00" departLane="A_0" departPos="2.10" departSpeed="6.00" departDelay="0.00" arrival="597.00" arrivalLane="X_0" arrivalPos="25.59" arrivalSpeed="11.78" duration="542.00" routeLength="6035.74" waitingTime="34.00" waitingCount="2" stopTime="0.00" timeLoss="52.77" rerouteNo="0" devices="tripinfo_A_10" vType="typeA" speedFactor="0.89" vaporized=""/>
</tripinfos>
