<?xml version="1.0" encoding="UTF-8"?>

<!-- generated on 2021-07-13 14:46:04 by Eclipse SUMO GUI Version 1.9.2
<configuration xmlns:xsi="http://www.w3.org/2001/XMLSchema-instance" xsi:noNamespaceSchemaLocation="http://sumo.dlr.de/xsd/sumoConfiguration.xsd">

    <input>
        <net-file value="sumo_data/laneMerging2.net.xml"/>
        <route-files value="sumo_data/laneMerging.rou.xml"/>
        <additional-files value="sumo_data/laneMerging.add.xml"/>
    </input>

    <output>
        <tripinfo-output value="sumo_data/tripinfo_dp.xml"/>
    </output>

    <report>
        <no-warnings value="true"/>
        <duration-log.disable value="true"/>
        <no-step-log value="true"/>
    </report>

    <traci_server>
        <remote-port value="57047"/>
    </traci_server>

    <gui_only>
        <gui-settings-file value="sumo_data/laneMerging.view.xml"/>
        <start value="true"/>
    </gui_only>

</configuration>
-->

<tripinfos xmlns:xsi="http://www.w3.org/2001/XMLSchema-instance" xsi:noNamespaceSchemaLocation="http://sumo.dlr.de/xsd/tripinfo_file.xsd">
    <tripinfo id="A_1" depart="1.00" departLane="E6_0" departPos="2.10" departSpeed="13.12" departDelay="0.00" arrival="412.00" arrivalLane="E9_0" arrivalPos="25.59" arrivalSpeed="13.46" duration="411.00" routeLength="6035.74" waitingTime="0.00" waitingCount="0" stopTime="0.00" timeLoss="0.74" rerouteNo="0" devices="tripinfo_A_1" vType="typeA" speedFactor="1.06" vaporized=""/>
    <tripinfo id="A_2" depart="2.00" departLane="E6_0" departPos="2.10" departSpeed="0.64" departDelay="0.00" arrival="437.00" arrivalLane="E9_0" arrivalPos="25.59" arrivalSpeed="12.97" duration="435.00" routeLength="6035.74" waitingTime="0.00" waitingCount="0" stopTime="0.00" timeLoss="4.49" rerouteNo="0" devices="tripinfo_A_2" vType="typeA" speedFactor="1.01" vaporized=""/>
    <tripinfo id="A_3" depart="4.00" departLane="E6_0" departPos="2.10" departSpeed="0.62" departDelay="1.00" arrival="439.00" arrivalLane="E9_0" arrivalPos="25.59" arrivalSpeed="13.17" duration="435.00" routeLength="6035.74" waitingTime="0.00" waitingCount="0" stopTime="0.00" timeLoss="12.10" rerouteNo="0" devices="tripinfo_A_3" vType="typeA" speedFactor="1.03" vaporized=""/>
    <tripinfo id="C_1" depart="1.00" departLane="E8_0" departPos="2.10" departSpeed="9.29" departDelay="0.00" arrival="467.00" arrivalLane="E10_0" arrivalPos="26.86" arrivalSpeed="12.09" duration="466.00" routeLength="6035.84" waitingTime="0.00" waitingCount="0" stopTime="0.00" timeLoss="1.30" rerouteNo="0" devices="tripinfo_C_1" vType="typeC" speedFactor="0.94" vaporized=""/>
    <tripinfo id="C_2" depart="2.00" departLane="E8_0" departPos="2.10" departSpeed="7.39" departDelay="0.00" arrival="468.00" arrivalLane="E10_0" arrivalPos="26.86" arrivalSpeed="11.76" duration="466.00" routeLength="6035.84" waitingTime="0.00" waitingCount="0" stopTime="0.00" timeLoss="63.68" rerouteNo="0" devices="tripinfo_C_2" vType="typeC" speedFactor="1.08" vaporized=""/>
    <tripinfo id="C_3" depart="5.00" departLane="E8_0" departPos="2.10" departSpeed="7.92" departDelay="0.00" arrival="470.00" arrivalLane="E10_0" arrivalPos="26.86" arrivalSpeed="12.96" duration="465.00" routeLength="6035.84" waitingTime="0.00" waitingCount="0" stopTime="0.00" timeLoss="48.55" rerouteNo="0" devices="tripinfo_C_3" vType="typeC" speedFactor="1.05" vaporized=""/>
    <tripinfo id="C_4" depart="8.00" departLane="E8_0" departPos="2.10" departSpeed="8.77" departDelay="0.00" arrival="475.00" arrivalLane="E10_0" arrivalPos="26.86" arrivalSpeed="12.09" duration="467.00" routeLength="6035.84" waitingTime="0.00" waitingCount="0" stopTime="0.00" timeLoss="2.03" rerouteNo="0" devices="tripinfo_C_4" vType="typeC" speedFactor="0.94" vaporized=""/>
    <tripinfo id="B_1" depart="8.00" departLane="E7_0" departPos="2.10" departSpeed="0.07" departDelay="0.00" arrival="503.00" arrivalLane="E9_0" arrivalPos="25.59" arrivalSpeed="12.31" duration="495.00" routeLength="6036.58" waitingTime="0.00" waitingCount="0" stopTime="0.00" timeLoss="3.56" rerouteNo="1" devices="tripinfo_B_1" vType="typeB" speedFactor="0.89" vaporized=""/>
    <tripinfo id="B_2" depart="11.00" departLane="E7_0" departPos="2.10" departSpeed="4.62" departDelay="0.00" arrival="504.00" arrivalLane="E9_0" arrivalPos="25.59" arrivalSpeed="13.81" duration="493.00" routeLength="6036.58" waitingTime="0.00" waitingCount="0" stopTime="0.00" timeLoss="68.95" rerouteNo="1" devices="tripinfo_B_2" vType="typeB" speedFactor="1.03" vaporized=""/>
    <tripinfo id="B_3" depart="12.00" departLane="E7_0" departPos="2.10" departSpeed="0.94" departDelay="0.00" arrival="509.00" arrivalLane="E9_0" arrivalPos="25.59" arrivalSpeed="11.11" duration="497.00" routeLength="6036.58" waitingTime="0.00" waitingCount="0" stopTime="0.00" timeLoss="109.68" rerouteNo="1" devices="tripinfo_B_3" vType="typeB" speedFactor="1.12" vaporized=""/>
    <tripinfo id="B_4" depart="17.00" departLane="E7_0" departPos="2.10" departSpeed="0.60" departDelay="0.00" arrival="510.00" arrivalLane="E9_0" arrivalPos="25.59" arrivalSpeed="11.14" duration="493.00" routeLength="6036.58" waitingTime="0.00" waitingCount="0" stopTime="0.00" timeLoss="31.35" rerouteNo="1" devices="tripinfo_B_4" vType="typeB" speedFactor="0.94" vaporized=""/>
    <tripinfo id="B_5" depart="19.00" departLane="E7_0" departPos="2.10" departSpeed="2.41" departDelay="0.00" arrival="516.00" arrivalLane="E9_0" arrivalPos="25.59" arrivalSpeed="10.50" duration="497.00" routeLength="6036.58" waitingTime="1.00" waitingCount="1" stopTime="0.00" timeLoss="32.62" rerouteNo="1" devices="tripinfo_B_5" vType="typeB" speedFactor="0.94" vaporized=""/>
    <tripinfo id="C_5" depart="10.00" departLane="E8_0" departPos="2.10" departSpeed="5.55" departDelay="0.00" arrival="520.00" arrivalLane="E10_0" arrivalPos="26.86" arrivalSpeed="11.43" duration="510.00" routeLength="6035.84" waitingTime="0.00" waitingCount="0" stopTime="0.00" timeLoss="2.12" rerouteNo="0" devices="tripinfo_C_5" vType="typeC" speedFactor="0.86" vaporized=""/>
    <tripinfo id="C_6" depart="11.00" departLane="E8_0" departPos="2.10" departSpeed="3.85" departDelay="0.00" arrival="522.00" arrivalLane="E10_0" arrivalPos="26.86" arrivalSpeed="12.93" duration="511.00" routeLength="6035.84" waitingTime="0.00" waitingCount="0" stopTime="0.00" timeLoss="94.43" rerouteNo="0" devices="tripinfo_C_6" vType="typeC" speedFactor="1.05" vaporized=""/>
    <tripinfo id="C_7" depart="15.00" departLane="E8_0" departPos="2.10" departSpeed="4.14" departDelay="0.00" arrival="527.00" arrivalLane="E10_0" arrivalPos="26.86" arrivalSpeed="10.63" duration="512.00" routeLength="6035.84" waitingTime="0.00" waitingCount="0" stopTime="0.00" timeLoss="42.32" rerouteNo="0" devices="tripinfo_C_7" vType="typeC" speedFactor="0.93" vaporized=""/>
    <tripinfo id="C_8" depart="21.00" departLane="E8_0" departPos="2.10" departSpeed="13.18" departDelay="0.00" arrival="529.00" arrivalLane="E10_0" arrivalPos="26.86" arrivalSpeed="12.13" duration="508.00" routeLength="6035.84" waitingTime="0.00" waitingCount="0" stopTime="0.00" timeLoss="76.44" rerouteNo="0" devices="tripinfo_C_8" vType="typeC" speedFactor="1.01" vaporized=""/>
    <tripinfo id="C_9" depart="22.00" departLane="E8_0" departPos="2.10" departSpeed="11.16" departDelay="0.00" arrival="530.00" arrivalLane="E10_0" arrivalPos="26.86" arrivalSpeed="10.89" duration="508.00" routeLength="6035.84" waitingTime="0.00" waitingCount="0" stopTime="0.00" timeLoss="61.68" rerouteNo="0" devices="tripinfo_C_9" vType="typeC" speedFactor="0.98" vaporized=""/>
    <tripinfo id="A_4" depart="6.00" departLane="E6_0" departPos="2.10" departSpeed="2.44" departDelay="2.00" arrival="533.00" arrivalLane="E9_0" arrivalPos="25.59" arrivalSpeed="11.20" duration="527.00" routeLength="6035.74" waitingTime="0.00" waitingCount="0" stopTime="0.00" timeLoss="3.39" rerouteNo="0" devices="tripinfo_A_4" vType="typeA" speedFactor="0.83" vaporized=""/>
    <tripinfo id="C_10" depart="23.00" departLane="E8_0" departPos="2.10" departSpeed="6.60" departDelay="0.00" arrival="533.00" arrivalLane="E10_0" arrivalPos="26.86" arrivalSpeed="11.56" duration="510.00" routeLength="6035.84" waitingTime="0.00" waitingCount="0" stopTime="0.00" timeLoss="10.47" rerouteNo="0" devices="tripinfo_C_10" vType="typeC" speedFactor="0.87" vaporized=""/>
    <tripinfo id="A_5" depart="11.00" departLane="E6_0" departPos="2.10" departSpeed="6.85" departDelay="0.00" arrival="535.00" arrivalLane="E9_0" arrivalPos="25.59" arrivalSpeed="12.70" duration="524.00" routeLength="6035.74" waitingTime="0.00" waitingCount="0" stopTime="0.00" timeLoss="124.71" rerouteNo="0" devices="tripinfo_A_5" vType="typeA" speedFactor="1.09" vaporized=""/>
    <tripinfo id="C_11" depart="24.00" departLane="E8_0" departPos="2.10" departSpeed="3.02" departDelay="0.00" arrival="535.00" arrivalLane="E10_0" arrivalPos="26.86" arrivalSpeed="11.92" duration="511.00" routeLength="6035.84" waitingTime="0.00" waitingCount="0" stopTime="0.00" timeLoss="35.60" rerouteNo="0" devices="tripinfo_C_11" vType="typeC" speedFactor="0.92" vaporized=""/>
    <tripinfo id="C_12" depart="25.00" departLane="E8_0" departPos="2.10" departSpeed="0.43" departDelay="0.00" arrival="536.00" arrivalLane="E10_0" arrivalPos="26.86" arrivalSpeed="10.68" duration="511.00" routeLength="6035.84" waitingTime="0.00" waitingCount="0" stopTime="0.00" timeLoss="52.27" rerouteNo="0" devices="tripinfo_C_12" vType="typeC" speedFactor="0.95" vaporized=""/>
    <tripinfo id="C_13" depart="27.00" departLane="E8_0" departPos="2.10" departSpeed="2.14" departDelay="0.00" arrival="538.00" arrivalLane="E10_0" arrivalPos="26.86" arrivalSpeed="11.95" duration="511.00" routeLength="6035.84" waitingTime="0.00" waitingCount="0" stopTime="0.00" timeLoss="126.18" rerouteNo="0" devices="tripinfo_C_13" vType="typeC" speedFactor="1.13" vaporized=""/>
    <tripinfo id="C_14" depart="29.00" departLane="E8_0" departPos="2.10" departSpeed="2.06" departDelay="1.00" arrival="540.00" arrivalLane="E10_0" arrivalPos="26.86" arrivalSpeed="10.53" duration="511.00" routeLength="6035.84" waitingTime="0.00" waitingCount="0" stopTime="0.00" timeLoss="43.65" rerouteNo="0" devices="tripinfo_C_14" vType="typeC" speedFactor="0.93" vaporized=""/>
    <tripinfo id="A_6" depart="15.00" departLane="E6_0" departPos="2.10" departSpeed="12.05" departDelay="0.00" arrival="541.00" arrivalLane="E9_0" arrivalPos="25.59" arrivalSpeed="10.50" duration="526.00" routeLength="6035.74" waitingTime="1.00" waitingCount="1" stopTime="0.00" timeLoss="87.09" rerouteNo="0" devices="tripinfo_A_6" vType="typeA" speedFactor="0.99" vaporized=""/>
    <tripinfo id="C_15" depart="31.00" departLane="E8_0" departPos="2.10" departSpeed="1.81" departDelay="2.00" arrival="542.00" arrivalLane="E10_0" arrivalPos="26.86" arrivalSpeed="11.13" duration="511.00" routeLength="6035.84" waitingTime="0.00" waitingCount="0" stopTime="0.00" timeLoss="77.85" rerouteNo="0" devices="tripinfo_C_15" vType="typeC" speedFactor="1.01" vaporized=""/>
    <tripinfo id="A_7" depart="16.00" departLane="E6_0" departPos="2.10" departSpeed="8.34" departDelay="0.00" arrival="543.00" arrivalLane="E9_0" arrivalPos="25.59" arrivalSpeed="12.00" duration="527.00" routeLength="6035.74" waitingTime="1.00" waitingCount="1" stopTime="0.00" timeLoss="31.11" rerouteNo="0" devices="tripinfo_A_7" vType="typeA" speedFactor="0.88" vaporized=""/>
    <tripinfo id="C_16" depart="33.00" departLane="E8_0" departPos="2.10" departSpeed="3.63" departDelay="2.00" arrival="544.00" arrivalLane="E10_0" arrivalPos="26.86" arrivalSpeed="11.99" duration="511.00" routeLength="6035.84" waitingTime="0.00" waitingCount="0" stopTime="0.00" timeLoss="139.29" rerouteNo="0" devices="tripinfo_C_16" vType="typeC" speedFactor="1.17" vaporized=""/>
    <tripinfo id="C_17" depart="35.00" departLane="E8_0" departPos="2.10" departSpeed="5.17" departDelay="2.00" arrival="546.00" arrivalLane="E10_0" arrivalPos="26.86" arrivalSpeed="12.00" duration="511.00" routeLength="6035.84" waitingTime="0.00" waitingCount="0" stopTime="0.00" timeLoss="141.76" rerouteNo="0" devices="tripinfo_C_17" vType="typeC" speedFactor="1.18" vaporized=""/>
    <tripinfo id="A_8" depart="20.00" departLane="E6_0" departPos="2.10" departSpeed="4.94" departDelay="0.00" arrival="548.00" arrivalLane="E9_0" arrivalPos="25.59" arrivalSpeed="10.50" duration="528.00" routeLength="6035.74" waitingTime="2.00" waitingCount="2" stopTime="0.00" timeLoss="152.40" rerouteNo="0" devices="tripinfo_A_8" vType="typeA" speedFactor="1.16" vaporized=""/>
    <tripinfo id="C_18" depart="36.00" departLane="E8_0" departPos="2.10" departSpeed="3.51" departDelay="2.00" arrival="548.00" arrivalLane="E10_0" arrivalPos="26.86" arrivalSpeed="11.92" duration="512.00" routeLength="6035.84" waitingTime="0.00" waitingCount="0" stopTime="0.00" timeLoss="116.87" rerouteNo="0" devices="tripinfo_C_18" vType="typeC" speedFactor="1.10" vaporized=""/>
    <tripinfo id="A_9" depart="21.00" departLane="E6_0" departPos="2.10" departSpeed="5.09" departDelay="0.00" arrival="550.00" arrivalLane="E9_0" arrivalPos="25.59" arrivalSpeed="12.00" duration="529.00" routeLength="6035.74" waitingTime="2.00" waitingCount="2" stopTime="0.00" timeLoss="101.14" rerouteNo="0" devices="tripinfo_A_9" vType="typeA" speedFactor="1.02" vaporized=""/>
    <tripinfo id="C_19" depart="38.00" departLane="E8_0" departPos="2.10" departSpeed="4.67" departDelay="3.00" arrival="551.00" arrivalLane="E10_0" arrivalPos="26.86" arrivalSpeed="11.79" duration="513.00" routeLength="6035.84" waitingTime="0.00" waitingCount="0" stopTime="0.00" timeLoss="28.85" rerouteNo="0" devices="tripinfo_C_19" vType="typeC" speedFactor="0.90" vaporized=""/>
    <tripinfo id="C_20" depart="39.00" departLane="E8_0" departPos="2.10" departSpeed="2.76" departDelay="2.00" arrival="552.00" arrivalLane="E10_0" arrivalPos="26.86" arrivalSpeed="10.74" duration="513.00" routeLength="6035.84" waitingTime="0.00" waitingCount="0" stopTime="0.00" timeLoss="58.20" rerouteNo="0" devices="tripinfo_C_20" vType="typeC" speedFactor="0.96" vaporized=""/>
    <tripinfo id="C_21" depart="41.00" departLane="E8_0" departPos="2.10" departSpeed="2.43" departDelay="1.00" arrival="554.00" arrivalLane="E10_0" arrivalPos="26.86" arrivalSpeed="11.40" duration="513.00" routeLength="6035.84" waitingTime="0.00" waitingCount="0" stopTime="0.00" timeLoss="93.40" rerouteNo="0" devices="tripinfo_C_21" vType="typeC" speedFactor="1.04" vaporized=""/>
    <tripinfo id="C_22" depart="43.00" departLane="E8_0" departPos="2.10" departSpeed="2.29" departDelay="2.00" arrival="556.00" arrivalLane="E10_0" arrivalPos="26.86" arrivalSpeed="11.80" duration="513.00" routeLength="6035.84" waitingTime="0.00" waitingCount="0" stopTime="0.00" timeLoss="112.71" rerouteNo="0" devices="tripinfo_C_22" vType="typeC" speedFactor="1.09" vaporized=""/>
    <tripinfo id="B_6" depart="23.00" departLane="E7_0" departPos="2.10" departSpeed="4.55" departDelay="0.00" arrival="557.00" arrivalLane="E9_0" arrivalPos="25.59" arrivalSpeed="10.50" duration="534.00" routeLength="6036.58" waitingTime="1.00" waitingCount="1" stopTime="0.00" timeLoss="7.43" rerouteNo="1" devices="tripinfo_B_6" vType="typeB" speedFactor="0.83" vaporized=""/>
    <tripinfo id="C_23" depart="45.00" departLane="E8_0" departPos="2.10" departSpeed="3.86" departDelay="1.00" arrival="558.00" arrivalLane="E10_0" arrivalPos="26.86" arrivalSpeed="11.07" duration="513.00" routeLength="6035.84" waitingTime="0.00" waitingCount="0" stopTime="0.00" timeLoss="76.50" rerouteNo="0" devices="tripinfo_C_23" vType="typeC" speedFactor="1.00" vaporized=""/>
    <tripinfo id="B_7" depart="29.00" departLane="E7_0" departPos="2.10" departSpeed="0.48" departDelay="0.00" arrival="559.00" arrivalLane="E9_0" arrivalPos="25.59" arrivalSpeed="12.00" duration="530.00" routeLength="6036.58" waitingTime="1.00" waitingCount="1" stopTime="0.00" timeLoss="152.93" rerouteNo="1" devices="tripinfo_B_7" vType="typeB" speedFactor="1.15" vaporized=""/>
    <tripinfo id="C_24" depart="46.00" departLane="E8_0" departPos="2.10" departSpeed="0.82" departDelay="1.00" arrival="561.00" arrivalLane="E10_0" arrivalPos="26.86" arrivalSpeed="11.59" duration="515.00" routeLength="6035.84" waitingTime="0.00" waitingCount="0" stopTime="0.00" timeLoss="17.88" rerouteNo="0" devices="tripinfo_C_24" vType="typeC" speedFactor="0.88" vaporized=""/>
    <tripinfo id="B_8" depart="32.00" departLane="E7_0" departPos="2.10" departSpeed="3.74" departDelay="0.00" arrival="564.00" arrivalLane="E9_0" arrivalPos="25.59" arrivalSpeed="10.50" duration="532.00" routeLength="6036.58" waitingTime="2.00" waitingCount="2" stopTime="0.00" timeLoss="105.62" rerouteNo="1" devices="tripinfo_B_8" vType="typeB" speedFactor="1.02" vaporized=""/>
    <tripinfo id="B_9" depart="33.00" departLane="E7_0" departPos="2.10" departSpeed="2.27" departDelay="0.00" arrival="566.00" arrivalLane="E9_0" arrivalPos="25.59" arrivalSpeed="12.00" duration="533.00" routeLength="6036.58" waitingTime="2.00" waitingCount="2" stopTime="0.00" timeLoss="85.72" rerouteNo="1" devices="tripinfo_B_9" vType="typeB" speedFactor="0.97" vaporized=""/>
    <tripinfo id="B_10" depart="41.00" departLane="E7_0" departPos="2.10" departSpeed="13.84" departDelay="0.00" arrival="571.00" arrivalLane="E9_0" arrivalPos="25.59" arrivalSpeed="10.50" duration="530.00" routeLength="6036.58" waitingTime="3.00" waitingCount="3" stopTime="0.00" timeLoss="113.32" rerouteNo="1" devices="tripinfo_B_10" vType="typeB" speedFactor="1.04" vaporized=""/>
    <tripinfo id="B_11" depart="45.00" departLane="E7_0" departPos="2.10" departSpeed="6.84" departDelay="0.00" arrival="573.00" arrivalLane="E10_0" arrivalPos="26.86" arrivalSpeed="12.00" duration="528.00" routeLength="6037.61" waitingTime="3.00" waitingCount="3" stopTime="0.00" timeLoss="44.55" rerouteNo="1" devices="tripinfo_B_11" vType="typeB" speedFactor="0.90" vaporized=""/>
    <tripinfo id="A_10" depart="23.00" departLane="E6_0" departPos="2.10" departSpeed="6.73" departDelay="0.00" arrival="579.00" arrivalLane="E9_0" arrivalPos="25.59" arrivalSpeed="10.50" duration="556.00" routeLength="6035.74" waitingTime="27.00" waitingCount="3" stopTime="0.00" timeLoss="66.99" rerouteNo="0" devices="tripinfo_A_10" vType="typeA" speedFactor="0.89" vaporized=""/>
    <tripinfo id="C_25" depart="48.00" departLane="E8_0" departPos="2.10" departSpeed="1.02" departDelay="2.00" arrival="580.00" arrivalLane="E10_0" arrivalPos="26.86" arrivalSpeed="10.50" duration="532.00" routeLength="6035.84" waitingTime="14.00" waitingCount="1" stopTime="0.00" timeLoss="22.92" rerouteNo="0" devices="tripinfo_C_25" vType="typeC" speedFactor="0.85" vaporized=""/>
    <tripinfo id="A_11" depart="29.00" departLane="E6_0" departPos="2.10" departSpeed="15.66" departDelay="0.00" arrival="581.00" arrivalLane="E9_0" arrivalPos="25.59" arrivalSpeed="12.00" duration="552.00" routeLength="6035.74" waitingTime="27.00" waitingCount="3" stopTime="0.00" timeLoss="182.39" rerouteNo="0" devices="tripinfo_A_11" vType="typeA" speedFactor="1.18" vaporized=""/>
    <tripinfo id="C_26" depart="51.00" departLane="E8_0" departPos="2.10" departSpeed="2.52" departDelay="0.00" arrival="582.00" arrivalLane="E10_0" arrivalPos="26.86" arrivalSpeed="12.00" duration="531.00" routeLength="6035.84" waitingTime="14.00" waitingCount="1" stopTime="0.00" timeLoss="96.53" rerouteNo="0" devices="tripinfo_C_26" vType="typeC" speedFactor="1.00" vaporized=""/>
    <tripinfo id="C_27" depart="54.00" departLane="E8_0" departPos="2.10" departSpeed="8.22" departDelay="0.00" arrival="583.00" arrivalLane="E10_0" arrivalPos="26.86" arrivalSpeed="11.25" duration="529.00" routeLength="6035.84" waitingTime="14.00" waitingCount="1" stopTime="0.00" timeLoss="126.88" rerouteNo="0" devices="tripinfo_C_27" vType="typeC" speedFactor="1.08" vaporized=""/>
    <tripinfo id="C_28" depart="61.00" departLane="E8_0" departPos="2.10" departSpeed="3.94" departDelay="0.00" arrival="585.00" arrivalLane="E10_0" arrivalPos="26.86" arrivalSpeed="10.59" duration="524.00" routeLength="6035.84" waitingTime="14.00" waitingCount="1" stopTime="0.00" timeLoss="59.86" rerouteNo="0" devices="tripinfo_C_28" vType="typeC" speedFactor="0.94" vaporized=""/>
    <tripinfo id="A_12" depart="32.00" departLane="E6_0" departPos="2.10" departSpeed="13.33" departDelay="0.00" arrival="586.00" arrivalLane="E9_0" arrivalPos="25.59" arrivalSpeed="10.50" duration="554.00" routeLength="6035.74" waitingTime="28.00" waitingCount="4" stopTime="0.00" timeLoss="116.71" rerouteNo="0" devices="tripinfo_A_12" vType="typeA" speedFactor="0.99" vaporized=""/>
    <tripinfo id="A_13" depart="36.00" departLane="E6_0" departPos="2.10" departSpeed="8.53" departDelay="0.00" arrival="588.00" arrivalLane="E9_0" arrivalPos="25.59" arrivalSpeed="12.00" duration="552.00" routeLength="6035.74" waitingTime="28.00" waitingCount="4" stopTime="0.00" timeLoss="129.23" rerouteNo="0" devices="tripinfo_A_13" vType="typeA" speedFactor="1.03" vaporized=""/>
    <tripinfo id="C_29" depart="62.00" departLane="E8_0" departPos="2.10" departSpeed="1.28" departDelay="0.00" arrival="588.00" arrivalLane="E10_0" arrivalPos="26.86" arrivalSpeed="11.64" duration="526.00" routeLength="6035.84" waitingTime="14.00" waitingCount="1" stopTime="0.00" timeLoss="31.90" rerouteNo="0" devices="tripinfo_C_29" vType="typeC" speedFactor="0.88" vaporized=""/>
    <tripinfo id="C_30" depart="64.00" departLane="E8_0" departPos="2.10" departSpeed="3.57" departDelay="1.00" arrival="590.00" arrivalLane="E10_0" arrivalPos="26.86" arrivalSpeed="11.84" duration="526.00" routeLength="6035.84" waitingTime="14.00" waitingCount="1" stopTime="0.00" timeLoss="45.16" rerouteNo="0" devices="tripinfo_C_30" vType="typeC" speedFactor="0.91" vaporized=""/>
    <tripinfo id="C_31" depart="66.00" departLane="E8_0" departPos="2.10" departSpeed="4.75" departDelay="2.00" arrival="592.00" arrivalLane="E10_0" arrivalPos="26.86" arrivalSpeed="11.90" duration="526.00" routeLength="6035.84" waitingTime="14.00" waitingCount="1" stopTime="0.00" timeLoss="49.21" rerouteNo="0" devices="tripinfo_C_31" vType="typeC" speedFactor="0.91" vaporized=""/>
    <tripinfo id="C_32" depart="67.00" departLane="E8_0" departPos="2.10" departSpeed="2.88" departDelay="1.00" arrival="593.00" arrivalLane="E10_0" arrivalPos="26.86" arrivalSpeed="11.28" duration="526.00" routeLength="6035.84" waitingTime="14.00" waitingCount="1" stopTime="0.00" timeLoss="100.39" rerouteNo="0" devices="tripinfo_C_32" vType="typeC" speedFactor="1.02" vaporized=""/>
    <tripinfo id="B_12" depart="46.00" departLane="E7_0" departPos="2.10" departSpeed="2.11" departDelay="0.00" arrival="595.00" arrivalLane="E9_0" arrivalPos="25.59" arrivalSpeed="10.50" duration="549.00" routeLength="6036.58" waitingTime="20.00" waitingCount="3" stopTime="0.00" timeLoss="37.73" rerouteNo="1" devices="tripinfo_B_12" vType="typeB" speedFactor="0.85" vaporized=""/>
    <tripinfo id="C_33" depart="69.00" departLane="E8_0" departPos="2.10" departSpeed="1.46" departDelay="0.00" arrival="595.00" arrivalLane="E10_0" arrivalPos="26.86" arrivalSpeed="11.35" duration="526.00" routeLength="6035.84" waitingTime="14.00" waitingCount="1" stopTime="0.00" timeLoss="104.27" rerouteNo="0" devices="tripinfo_C_33" vType="typeC" speedFactor="1.03" vaporized=""/>
    <tripinfo id="B_13" depart="52.00" departLane="E7_0" departPos="2.10" departSpeed="0.65" departDelay="0.00" arrival="597.00" arrivalLane="E9_0" arrivalPos="25.59" arrivalSpeed="12.00" duration="545.00" routeLength="6036.58" waitingTime="20.00" waitingCount="3" stopTime="0.00" timeLoss="107.96" rerouteNo="1" devices="tripinfo_B_13" vType="typeB" speedFactor="1.00" vaporized=""/>
    <tripinfo id="C_34" depart="71.00" departLane="E8_0" departPos="2.10" departSpeed="3.91" departDelay="0.00" arrival="597.00" arrivalLane="E10_0" arrivalPos="26.86" arrivalSpeed="11.15" duration="526.00" routeLength="6035.84" waitingTime="14.00" waitingCount="1" stopTime="0.00" timeLoss="93.76" rerouteNo="0" devices="tripinfo_C_34" vType="typeC" speedFactor="1.01" vaporized=""/>
    <tripinfo id="C_35" depart="73.00" departLane="E8_0" departPos="2.10" departSpeed="1.79" departDelay="0.00" arrival="599.00" arrivalLane="E10_0" arrivalPos="26.86" arrivalSpeed="11.37" duration="526.00" routeLength="6035.84" waitingTime="14.00" waitingCount="1" stopTime="0.00" timeLoss="105.08" rerouteNo="0" devices="tripinfo_C_35" vType="typeC" speedFactor="1.03" vaporized=""/>
    <tripinfo id="C_36" depart="75.00" departLane="E8_0" departPos="2.10" departSpeed="1.99" departDelay="0.00" arrival="601.00" arrivalLane="E10_0" arrivalPos="26.86" arrivalSpeed="11.23" duration="526.00" routeLength="6035.84" waitingTime="14.00" waitingCount="1" stopTime="0.00" timeLoss="97.83" rerouteNo="0" devices="tripinfo_C_36" vType="typeC" speedFactor="1.02" vaporized=""/>
    <tripinfo id="B_14" depart="54.00" departLane="E7_0" departPos="2.10" departSpeed="2.47" departDelay="1.00" arrival="602.00" arrivalLane="E9_0" arrivalPos="25.59" arrivalSpeed="10.50" duration="548.00" routeLength="6036.58" waitingTime="21.00" waitingCount="4" stopTime="0.00" timeLoss="167.46" rerouteNo="1" devices="tripinfo_B_14" vType="typeB" speedFactor="1.14" vaporized=""/>
    <tripinfo id="C_37" depart="77.00" departLane="E8_0" departPos="2.10" departSpeed="4.66" departDelay="1.00" arrival="603.00" arrivalLane="E10_0" arrivalPos="26.86" arrivalSpeed="12.00" duration="526.00" routeLength="6035.84" waitingTime="14.00" waitingCount="1" stopTime="0.00" timeLoss="146.51" rerouteNo="0" devices="tripinfo_C_37" vType="typeC" speedFactor="1.15" vaporized=""/>
    <tripinfo id="B_15" depart="56.00" departLane="E7_0" departPos="2.10" departSpeed="2.96" departDelay="2.00" arrival="604.00" arrivalLane="E9_0" arrivalPos="25.59" arrivalSpeed="12.00" duration="548.00" routeLength="6036.58" waitingTime="21.00" waitingCount="4" stopTime="0.00" timeLoss="99.02" rerouteNo="1" devices="tripinfo_B_15" vType="typeB" speedFactor="0.97" vaporized=""/>
    <tripinfo id="C_38" depart="80.00" departLane="E8_0" departPos="2.10" departSpeed="8.99" departDelay="0.00" arrival="605.00" arrivalLane="E10_0" arrivalPos="26.86" arrivalSpeed="11.15" duration="525.00" routeLength="6035.84" waitingTime="14.00" waitingCount="1" stopTime="0.00" timeLoss="92.67" rerouteNo="0" devices="tripinfo_C_38" vType="typeC" speedFactor="1.01" vaporized=""/>
    <tripinfo id="C_39" depart="81.00" departLane="E8_0" departPos="2.10" departSpeed="8.09" departDelay="0.00" arrival="607.00" arrivalLane="E10_0" arrivalPos="26.86" arrivalSpeed="11.22" duration="526.00" routeLength="6035.84" waitingTime="14.00" waitingCount="1" stopTime="0.00" timeLoss="97.74" rerouteNo="0" devices="tripinfo_C_39" vType="typeC" speedFactor="1.02" vaporized=""/>
    <tripinfo id="B_16" depart="58.00" departLane="E7_0" departPos="2.10" departSpeed="3.91" departDelay="3.00" arrival="609.00" arrivalLane="E9_0" arrivalPos="25.59" arrivalSpeed="10.50" duration="551.00" routeLength="6036.58" waitingTime="22.00" waitingCount="5" stopTime="0.00" timeLoss="162.58" rerouteNo="1" devices="tripinfo_B_16" vType="typeB" speedFactor="1.12" vaporized=""/>
    <tripinfo id="C_40" depart="82.00" departLane="E8_0" departPos="2.10" departSpeed="4.27" departDelay="0.00" arrival="610.00" arrivalLane="E10_0" arrivalPos="26.86" arrivalSpeed="11.71" duration="528.00" routeLength="6035.84" waitingTime="14.00" waitingCount="1" stopTime="0.00" timeLoss="39.10" rerouteNo="0" devices="tripinfo_C_40" vType="typeC" speedFactor="0.89" vaporized=""/>
    <tripinfo id="B_17" depart="60.00" departLane="E7_0" departPos="2.10" departSpeed="0.34" departDelay="4.00" arrival="611.00" arrivalLane="E9_0" arrivalPos="25.59" arrivalSpeed="12.00" duration="551.00" routeLength="6036.58" waitingTime="22.00" waitingCount="5" stopTime="0.00" timeLoss="122.45" rerouteNo="1" devices="tripinfo_B_17" vType="typeB" speedFactor="1.02" vaporized=""/>
    <tripinfo id="C_41" depart="86.00" departLane="E8_0" departPos="2.10" departSpeed="4.07" departDelay="0.00" arrival="611.00" arrivalLane="E10_0" arrivalPos="26.86" arrivalSpeed="11.55" duration="525.00" routeLength="6035.84" waitingTime="14.00" waitingCount="1" stopTime="0.00" timeLoss="112.95" rerouteNo="0" devices="tripinfo_C_41" vType="typeC" speedFactor="1.06" vaporized=""/>
    <tripinfo id="C_42" depart="89.00" departLane="E8_0" departPos="2.10" departSpeed="8.74" departDelay="0.00" arrival="613.00" arrivalLane="E10_0" arrivalPos="26.86" arrivalSpeed="11.88" duration="524.00" routeLength="6035.84" waitingTime="14.00" waitingCount="1" stopTime="0.00" timeLoss="127.02" rerouteNo="0" devices="tripinfo_C_42" vType="typeC" speedFactor="1.10" vaporized=""/>
    <tripinfo id="C_43" depart="92.00" departLane="E8_0" departPos="2.10" departSpeed="11.38" departDelay="0.00" arrival="615.00" arrivalLane="E10_0" arrivalPos="26.86" arrivalSpeed="10.74" duration="523.00" routeLength="6035.84" waitingTime="14.00" waitingCount="1" stopTime="0.00" timeLoss="68.01" rerouteNo="0" devices="tripinfo_C_43" vType="typeC" speedFactor="0.96" vaporized=""/>
    <tripinfo id="B_18" depart="66.00" departLane="E7_0" departPos="2.10" departSpeed="6.47" departDelay="0.00" arrival="616.00" arrivalLane="E9_0" arrivalPos="25.59" arrivalSpeed="10.50" duration="550.00" routeLength="6036.58" waitingTime="23.00" waitingCount="6" stopTime="0.00" timeLoss="124.64" rerouteNo="1" devices="tripinfo_B_18" vType="typeB" speedFactor="1.02" vaporized=""/>
    <tripinfo id="C_44" depart="96.00" departLane="E8_0" departPos="2.10" departSpeed="0.22" departDelay="0.00" arrival="617.00" arrivalLane="E10_0" arrivalPos="26.86" arrivalSpeed="11.68" duration="521.00" routeLength="6035.84" waitingTime="14.00" waitingCount="1" stopTime="0.00" timeLoss="115.03" rerouteNo="0" devices="tripinfo_C_44" vType="typeC" speedFactor="1.07" vaporized=""/>