<?xml version="1.0" encoding="UTF-8"?>

<!-- generated on 2022-03-09 04:03:33 by Eclipse SUMO GUI Version 1.9.2
<configuration xmlns:xsi="http://www.w3.org/2001/XMLSchema-instance" xsi:noNamespaceSchemaLocation="http://sumo.dlr.de/xsd/sumoConfiguration.xsd">

    <input>
        <net-file value="sumo_data/laneMerging3.net.xml"/>
        <route-files value="sumo_data/laneMerging.rou.xml"/>
        <additional-files value="sumo_data/laneMerging.add.xml"/>
    </input>

    <output>
        <tripinfo-output value="sumo_data/tripinfo_dp.xml"/>
    </output>

    <time>
        <step-length value="0.5"/>
    </time>

    <report>
        <no-warnings value="true"/>
        <duration-log.disable value="true"/>
        <no-step-log value="true"/>
    </report>

    <traci_server>
        <remote-port value="49879"/>
    </traci_server>

    <gui_only>
        <gui-settings-file value="sumo_data/laneMerging.view.xml"/>
        <start value="true"/>
        <tracker-interval value="0.5"/>
    </gui_only>

</configuration>
-->

<tripinfos xmlns:xsi="http://www.w3.org/2001/XMLSchema-instance" xsi:noNamespaceSchemaLocation="http://sumo.dlr.de/xsd/tripinfo_file.xsd">
    <tripinfo id="A_1" depart="1.00" departLane="A_0" departPos="2.10" departSpeed="20.00" departDelay="0.00" arrival="327.50" arrivalLane="X_0" arrivalPos="20.00" arrivalSpeed="20.00" duration="326.50" routeLength="6521.90" waitingTime="0.00" waitingCount="0" stopTime="0.00" timeLoss="0.00" rerouteNo="0" devices="tripinfo_A_1" vType="typeA" speedFactor="1.06" vaporized=""/>
    <tripinfo id="A_2" depart="2.50" departLane="A_0" departPos="2.10" departSpeed="18.77" departDelay="0.50" arrival="350.50" arrivalLane="X_0" arrivalPos="20.00" arrivalSpeed="18.77" duration="348.00" routeLength="6521.90" waitingTime="0.00" waitingCount="0" stopTime="0.00" timeLoss="0.00" rerouteNo="0" devices="tripinfo_A_2" vType="typeA" speedFactor="0.94" vaporized=""/>
    <tripinfo id="A_3" depart="4.50" departLane="A_0" departPos="2.10" departSpeed="20.00" departDelay="1.50" arrival="354.50" arrivalLane="X_0" arrivalPos="20.00" arrivalSpeed="20.00" duration="350.00" routeLength="6521.90" waitingTime="0.00" waitingCount="0" stopTime="0.00" timeLoss="23.44" rerouteNo="0" devices="tripinfo_A_3" vType="typeA" speedFactor="1.01" vaporized=""/>
    <tripinfo id="A_4" depart="6.00" departLane="A_0" departPos="2.10" departSpeed="20.00" departDelay="2.00" arrival="358.50" arrivalLane="X_0" arrivalPos="20.00" arrivalSpeed="20.00" duration="352.50" routeLength="6521.90" waitingTime="0.00" waitingCount="0" stopTime="0.00" timeLoss="26.03" rerouteNo="0" devices="tripinfo_A_4" vType="typeA" speedFactor="1.08" vaporized=""/>
    <tripinfo id="A_5" depart="7.50" departLane="A_0" departPos="2.10" departSpeed="20.00" departDelay="2.50" arrival="362.50" arrivalLane="X_0" arrivalPos="20.00" arrivalSpeed="20.00" duration="355.00" routeLength="6521.90" waitingTime="0.00" waitingCount="0" stopTime="0.00" timeLoss="28.62" rerouteNo="0" devices="tripinfo_A_5" vType="typeA" speedFactor="1.03" vaporized=""/>
    <tripinfo id="A_6" depart="9.00" departLane="A_0" departPos="2.10" departSpeed="16.62" departDelay="3.00" arrival="409.00" arrivalLane="X_0" arrivalPos="20.00" arrivalSpeed="16.62" duration="400.00" routeLength="6521.90" waitingTime="0.00" waitingCount="0" stopTime="0.00" timeLoss="7.31" rerouteNo="0" devices="tripinfo_A_6" vType="typeA" speedFactor="0.83" vaporized=""/>
    <tripinfo id="A_7" depart="12.00" departLane="A_0" departPos="2.10" departSpeed="20.00" departDelay="5.00" arrival="412.50" arrivalLane="X_0" arrivalPos="20.00" arrivalSpeed="20.00" duration="400.50" routeLength="6521.90" waitingTime="0.00" waitingCount="0" stopTime="0.00" timeLoss="74.21" rerouteNo="0" devices="tripinfo_A_7" vType="typeA" speedFactor="1.05" vaporized=""/>
    <tripinfo id="A_8" depart="13.50" departLane="A_0" departPos="2.10" departSpeed="17.72" departDelay="5.50" arrival="417.00" arrivalLane="X_0" arrivalPos="20.00" arrivalSpeed="17.72" duration="403.50" routeLength="6521.90" waitingTime="0.00" waitingCount="0" stopTime="0.00" timeLoss="35.15" rerouteNo="0" devices="tripinfo_A_8" vType="typeA" speedFactor="0.89" vaporized=""/>
    <tripinfo id="A_9" depart="15.50" departLane="A_0" departPos="2.10" departSpeed="18.76" departDelay="6.50" arrival="421.00" arrivalLane="X_0" arrivalPos="20.00" arrivalSpeed="18.76" duration="405.50" routeLength="6521.90" waitingTime="0.00" waitingCount="0" stopTime="0.00" timeLoss="57.39" rerouteNo="0" devices="tripinfo_A_9" vType="typeA" speedFactor="0.94" vaporized=""/>
    <tripinfo id="A_10" depart="17.00" departLane="A_0" departPos="2.10" departSpeed="17.14" departDelay="7.00" arrival="425.50" arrivalLane="X_0" arrivalPos="20.00" arrivalSpeed="17.14" duration="408.50" routeLength="6521.90" waitingTime="0.00" waitingCount="0" stopTime="0.00" timeLoss="27.55" rerouteNo="0" devices="tripinfo_A_10" vType="typeA" speedFactor="0.86" vaporized=""/>
</tripinfos>
