<?xml version="1.0" encoding="UTF-8"?>

<!-- generated on 2022-02-15 04:32:06 by Eclipse SUMO GUI Version 1.9.2
<configuration xmlns:xsi="http://www.w3.org/2001/XMLSchema-instance" xsi:noNamespaceSchemaLocation="http://sumo.dlr.de/xsd/sumoConfiguration.xsd">

    <input>
        <net-file value="sumo_data/laneMerging3.net.xml"/>
        <route-files value="sumo_data/laneMerging.rou.xml"/>
        <additional-files value="sumo_data/laneMerging.add.xml"/>
    </input>

    <output>
        <tripinfo-output value="sumo_data/tripinfo_dp.xml"/>
    </output>

    <report>
        <no-warnings value="true"/>
        <duration-log.disable value="true"/>
        <no-step-log value="true"/>
    </report>

    <traci_server>
        <remote-port value="63767"/>
    </traci_server>

    <gui_only>
        <gui-settings-file value="sumo_data/laneMerging.view.xml"/>
        <start value="true"/>
    </gui_only>

</configuration>
-->

<tripinfos xmlns:xsi="http://www.w3.org/2001/XMLSchema-instance" xsi:noNamespaceSchemaLocation="http://sumo.dlr.de/xsd/tripinfo_file.xsd">
    <tripinfo id="C_1" depart="1.00" departLane="C_0" departPos="4.10" departSpeed="17.82" departDelay="0.00" arrival="327.00" arrivalLane="Y_0" arrivalPos="20.00" arrivalSpeed="20.00" duration="326.00" routeLength="6519.90" waitingTime="0.00" waitingCount="0" stopTime="0.00" timeLoss="0.00" rerouteNo="0" devices="tripinfo_C_1" vType="typeC" speedFactor="1.06" vaporized=""/>
    <tripinfo id="A_1" depart="5.00" departLane="A_0" departPos="4.10" departSpeed="9.83" departDelay="0.00" arrival="332.00" arrivalLane="X_0" arrivalPos="20.00" arrivalSpeed="20.00" duration="327.00" routeLength="6519.90" waitingTime="0.00" waitingCount="0" stopTime="0.00" timeLoss="0.75" rerouteNo="0" devices="tripinfo_A_1" vType="typeA" speedFactor="1.08" vaporized=""/>
    <tripinfo id="B_1" depart="4.00" departLane="B_0" departPos="4.10" departSpeed="0.91" departDelay="0.00" arrival="334.00" arrivalLane="Y_0" arrivalPos="20.00" arrivalSpeed="20.00" duration="330.00" routeLength="6519.90" waitingTime="0.00" waitingCount="0" stopTime="0.00" timeLoss="3.04" rerouteNo="1" devices="tripinfo_B_1" vType="typeB" speedFactor="1.01" vaporized=""/>
    <tripinfo id="B_2" depart="6.00" departLane="B_0" departPos="4.10" departSpeed="0.87" departDelay="1.00" arrival="336.00" arrivalLane="X_0" arrivalPos="20.00" arrivalSpeed="20.00" duration="330.00" routeLength="6519.90" waitingTime="0.00" waitingCount="0" stopTime="0.00" timeLoss="3.35" rerouteNo="1" devices="tripinfo_B_2" vType="typeB" speedFactor="1.03" vaporized=""/>
    <tripinfo id="C_2" depart="2.00" departLane="C_0" departPos="4.10" departSpeed="13.37" departDelay="0.00" arrival="350.00" arrivalLane="Y_0" arrivalPos="20.00" arrivalSpeed="18.77" duration="348.00" routeLength="6519.90" waitingTime="0.00" waitingCount="0" stopTime="0.00" timeLoss="0.16" rerouteNo="0" devices="tripinfo_C_2" vType="typeC" speedFactor="0.94" vaporized=""/>
    <tripinfo id="C_3" depart="6.00" departLane="C_0" departPos="4.10" departSpeed="4.95" departDelay="0.00" arrival="351.00" arrivalLane="Y_0" arrivalPos="20.00" arrivalSpeed="20.00" duration="345.00" routeLength="6519.90" waitingTime="0.00" waitingCount="0" stopTime="0.00" timeLoss="18.88" rerouteNo="0" devices="tripinfo_C_3" vType="typeC" speedFactor="1.05" vaporized=""/>
    <tripinfo id="C_4" depart="9.00" departLane="C_0" departPos="4.10" departSpeed="11.33" departDelay="0.00" arrival="353.00" arrivalLane="Y_0" arrivalPos="20.00" arrivalSpeed="20.00" duration="344.00" routeLength="6519.90" waitingTime="0.00" waitingCount="0" stopTime="0.00" timeLoss="17.21" rerouteNo="0" devices="tripinfo_C_4" vType="typeC" speedFactor="1.03" vaporized=""/>
    <tripinfo id="C_5" depart="10.00" departLane="C_0" departPos="4.10" departSpeed="6.44" departDelay="0.00" arrival="354.00" arrivalLane="Y_0" arrivalPos="20.00" arrivalSpeed="20.00" duration="344.00" routeLength="6519.90" waitingTime="0.00" waitingCount="0" stopTime="0.00" timeLoss="17.53" rerouteNo="0" devices="tripinfo_C_5" vType="typeC" speedFactor="1.12" vaporized=""/>
    <tripinfo id="C_6" depart="11.00" departLane="C_0" departPos="4.10" departSpeed="5.81" departDelay="0.00" arrival="365.00" arrivalLane="Y_0" arrivalPos="20.00" arrivalSpeed="18.54" duration="354.00" routeLength="6519.90" waitingTime="0.00" waitingCount="0" stopTime="0.00" timeLoss="2.03" rerouteNo="0" devices="tripinfo_C_6" vType="typeC" speedFactor="0.93" vaporized=""/>
    <tripinfo id="C_7" depart="15.00" departLane="C_0" departPos="4.10" departSpeed="10.89" departDelay="0.00" arrival="367.00" arrivalLane="Y_0" arrivalPos="20.00" arrivalSpeed="20.00" duration="352.00" routeLength="6519.90" waitingTime="0.00" waitingCount="0" stopTime="0.00" timeLoss="25.03" rerouteNo="0" devices="tripinfo_C_7" vType="typeC" speedFactor="1.16" vaporized=""/>
    <tripinfo id="C_8" depart="16.00" departLane="C_0" departPos="4.10" departSpeed="0.65" departDelay="0.00" arrival="368.00" arrivalLane="Y_0" arrivalPos="20.00" arrivalSpeed="20.00" duration="352.00" routeLength="6519.90" waitingTime="0.00" waitingCount="0" stopTime="0.00" timeLoss="25.36" rerouteNo="0" devices="tripinfo_C_8" vType="typeC" speedFactor="1.01" vaporized=""/>
    <tripinfo id="A_2" depart="7.00" departLane="A_0" departPos="4.10" departSpeed="13.20" departDelay="0.00" arrival="376.00" arrivalLane="X_0" arrivalPos="20.00" arrivalSpeed="17.72" duration="369.00" routeLength="6519.90" waitingTime="0.00" waitingCount="0" stopTime="0.00" timeLoss="0.11" rerouteNo="0" devices="tripinfo_A_2" vType="typeA" speedFactor="0.89" vaporized=""/>
    <tripinfo id="A_3" depart="9.00" departLane="A_0" departPos="4.10" departSpeed="9.04" departDelay="0.00" arrival="377.00" arrivalLane="X_0" arrivalPos="20.00" arrivalSpeed="20.00" duration="368.00" routeLength="6519.90" waitingTime="0.00" waitingCount="0" stopTime="0.00" timeLoss="41.37" rerouteNo="0" devices="tripinfo_A_3" vType="typeA" speedFactor="1.09" vaporized=""/>
    <tripinfo id="A_4" depart="10.00" departLane="A_0" departPos="4.10" departSpeed="9.48" departDelay="0.00" arrival="378.00" arrivalLane="X_0" arrivalPos="20.00" arrivalSpeed="20.00" duration="368.00" routeLength="6519.90" waitingTime="0.00" waitingCount="0" stopTime="0.00" timeLoss="41.70" rerouteNo="0" devices="tripinfo_A_4" vType="typeA" speedFactor="1.05" vaporized=""/>
    <tripinfo id="A_5" depart="11.00" departLane="A_0" departPos="4.10" departSpeed="0.92" departDelay="0.00" arrival="380.00" arrivalLane="X_0" arrivalPos="20.00" arrivalSpeed="19.82" duration="369.00" routeLength="6519.90" waitingTime="0.00" waitingCount="0" stopTime="0.00" timeLoss="39.12" rerouteNo="0" devices="tripinfo_A_5" vType="typeA" speedFactor="0.99" vaporized=""/>
    <tripinfo id="A_6" depart="13.00" departLane="A_0" departPos="4.10" departSpeed="4.62" departDelay="1.00" arrival="387.00" arrivalLane="X_0" arrivalPos="20.00" arrivalSpeed="17.57" duration="374.00" routeLength="6519.90" waitingTime="0.00" waitingCount="0" stopTime="0.00" timeLoss="2.20" rerouteNo="0" devices="tripinfo_A_6" vType="typeA" speedFactor="0.88" vaporized=""/>
    <tripinfo id="A_7" depart="15.00" departLane="A_0" departPos="4.10" departSpeed="6.28" departDelay="0.00" arrival="388.00" arrivalLane="X_0" arrivalPos="20.00" arrivalSpeed="18.72" duration="373.00" routeLength="6519.90" waitingTime="0.00" waitingCount="0" stopTime="0.00" timeLoss="24.44" rerouteNo="0" devices="tripinfo_A_7" vType="typeA" speedFactor="0.94" vaporized=""/>
    <tripinfo id="C_9" depart="18.00" departLane="C_0" departPos="4.10" departSpeed="0.53" departDelay="1.00" arrival="388.00" arrivalLane="Y_0" arrivalPos="20.00" arrivalSpeed="17.79" duration="370.00" routeLength="6519.90" waitingTime="0.00" waitingCount="0" stopTime="0.00" timeLoss="2.75" rerouteNo="0" devices="tripinfo_C_9" vType="typeC" speedFactor="0.89" vaporized=""/>
    <tripinfo id="A_8" depart="19.00" departLane="A_0" departPos="4.10" departSpeed="7.55" departDelay="0.00" arrival="390.00" arrivalLane="X_0" arrivalPos="20.00" arrivalSpeed="18.34" duration="371.00" routeLength="6519.90" waitingTime="0.00" waitingCount="0" stopTime="0.00" timeLoss="14.59" rerouteNo="0" devices="tripinfo_A_8" vType="typeA" speedFactor="0.92" vaporized=""/>
    <tripinfo id="A_9" depart="23.00" departLane="A_0" departPos="4.10" departSpeed="18.70" departDelay="0.00" arrival="391.00" arrivalLane="X_0" arrivalPos="20.00" arrivalSpeed="20.00" duration="368.00" routeLength="6519.90" waitingTime="0.00" waitingCount="0" stopTime="0.00" timeLoss="41.34" rerouteNo="0" devices="tripinfo_A_9" vType="typeA" speedFactor="1.01" vaporized=""/>
    <tripinfo id="A_10" depart="27.00" departLane="A_0" departPos="4.10" departSpeed="1.34" departDelay="0.00" arrival="392.00" arrivalLane="X_0" arrivalPos="20.00" arrivalSpeed="20.00" duration="365.00" routeLength="6519.90" waitingTime="0.00" waitingCount="0" stopTime="0.00" timeLoss="38.66" rerouteNo="0" devices="tripinfo_A_10" vType="typeA" speedFactor="1.10" vaporized=""/>
    <tripinfo id="A_11" depart="29.00" departLane="A_0" departPos="4.10" departSpeed="3.61" departDelay="1.00" arrival="393.00" arrivalLane="X_0" arrivalPos="20.00" arrivalSpeed="20.00" duration="364.00" routeLength="6519.90" waitingTime="0.00" waitingCount="0" stopTime="0.00" timeLoss="37.99" rerouteNo="0" devices="tripinfo_A_11" vType="typeA" speedFactor="1.03" vaporized=""/>
    <tripinfo id="A_12" depart="31.00" departLane="A_0" departPos="4.10" departSpeed="7.24" departDelay="2.00" arrival="395.00" arrivalLane="X_0" arrivalPos="20.00" arrivalSpeed="20.00" duration="364.00" routeLength="6519.90" waitingTime="0.00" waitingCount="0" stopTime="0.00" timeLoss="37.31" rerouteNo="0" devices="tripinfo_A_12" vType="typeA" speedFactor="1.04" vaporized=""/>
    <tripinfo id="C_10" depart="20.00" departLane="C_0" departPos="4.10" departSpeed="3.59" departDelay="2.00" arrival="397.00" arrivalLane="Y_0" arrivalPos="20.00" arrivalSpeed="17.45" duration="377.00" routeLength="6519.90" waitingTime="0.00" waitingCount="0" stopTime="0.00" timeLoss="2.53" rerouteNo="0" devices="tripinfo_C_10" vType="typeC" speedFactor="0.87" vaporized=""/>
    <tripinfo id="C_11" depart="22.00" departLane="C_0" departPos="4.10" departSpeed="4.74" departDelay="3.00" arrival="398.00" arrivalLane="Y_0" arrivalPos="20.00" arrivalSpeed="18.98" duration="376.00" routeLength="6519.90" waitingTime="0.00" waitingCount="0" stopTime="0.00" timeLoss="31.87" rerouteNo="0" devices="tripinfo_C_11" vType="typeC" speedFactor="0.95" vaporized=""/>
    <tripinfo id="C_12" depart="24.00" departLane="C_0" departPos="4.10" departSpeed="6.45" departDelay="4.00" arrival="399.00" arrivalLane="Y_0" arrivalPos="20.00" arrivalSpeed="18.63" duration="375.00" routeLength="6519.90" waitingTime="0.00" waitingCount="0" stopTime="0.00" timeLoss="24.76" rerouteNo="0" devices="tripinfo_C_12" vType="typeC" speedFactor="0.93" vaporized=""/>
    <tripinfo id="C_13" depart="26.00" departLane="C_0" departPos="4.10" departSpeed="3.67" departDelay="4.00" arrival="401.00" arrivalLane="Y_0" arrivalPos="20.00" arrivalSpeed="20.00" duration="375.00" routeLength="6519.90" waitingTime="0.00" waitingCount="0" stopTime="0.00" timeLoss="48.07" rerouteNo="0" devices="tripinfo_C_13" vType="typeC" speedFactor="1.15" vaporized=""/>
    <tripinfo id="C_14" depart="28.00" departLane="C_0" departPos="4.10" departSpeed="3.58" departDelay="3.00" arrival="402.00" arrivalLane="Y_0" arrivalPos="20.00" arrivalSpeed="20.00" duration="374.00" routeLength="6519.90" waitingTime="0.00" waitingCount="0" stopTime="0.00" timeLoss="47.40" rerouteNo="0" devices="tripinfo_C_14" vType="typeC" speedFactor="1.02" vaporized=""/>
    <tripinfo id="B_3" depart="8.00" departLane="B_0" departPos="4.10" departSpeed="0.10" departDelay="2.00" arrival="403.00" arrivalLane="X_0" arrivalPos="20.00" arrivalSpeed="16.62" duration="395.00" routeLength="6519.90" waitingTime="0.00" waitingCount="0" stopTime="0.00" timeLoss="2.68" rerouteNo="1" devices="tripinfo_B_3" vType="typeB" speedFactor="0.83" vaporized=""/>
    <tripinfo id="C_15" depart="30.00" departLane="C_0" departPos="4.10" departSpeed="1.60" departDelay="4.00" arrival="403.00" arrivalLane="Y_0" arrivalPos="20.00" arrivalSpeed="20.00" duration="373.00" routeLength="6519.90" waitingTime="0.00" waitingCount="0" stopTime="0.00" timeLoss="46.72" rerouteNo="0" devices="tripinfo_C_15" vType="typeC" speedFactor="1.18" vaporized=""/>
    <tripinfo id="B_4" depart="10.00" departLane="B_0" departPos="4.10" departSpeed="2.30" departDelay="3.00" arrival="405.00" arrivalLane="X_0" arrivalPos="20.00" arrivalSpeed="18.76" duration="395.00" routeLength="6519.90" waitingTime="0.00" waitingCount="0" stopTime="0.00" timeLoss="46.60" rerouteNo="1" devices="tripinfo_B_4" vType="typeB" speedFactor="0.94" vaporized=""/>
    <tripinfo id="C_16" depart="32.00" departLane="C_0" departPos="4.10" departSpeed="5.65" departDelay="4.00" arrival="405.00" arrivalLane="Y_0" arrivalPos="20.00" arrivalSpeed="20.00" duration="373.00" routeLength="6519.90" waitingTime="0.00" waitingCount="0" stopTime="0.00" timeLoss="46.05" rerouteNo="0" devices="tripinfo_C_16" vType="typeC" speedFactor="1.09" vaporized=""/>
    <tripinfo id="B_5" depart="12.00" departLane="B_0" departPos="4.10" departSpeed="1.10" departDelay="4.00" arrival="406.00" arrivalLane="X_0" arrivalPos="20.00" arrivalSpeed="17.14" duration="394.00" routeLength="6519.90" waitingTime="0.00" waitingCount="0" stopTime="0.00" timeLoss="13.26" rerouteNo="1" devices="tripinfo_B_5" vType="typeB" speedFactor="0.86" vaporized=""/>
    <tripinfo id="C_17" depart="34.00" departLane="C_0" departPos="4.10" departSpeed="2.09" departDelay="5.00" arrival="406.00" arrivalLane="Y_0" arrivalPos="20.00" arrivalSpeed="20.00" duration="372.00" routeLength="6519.90" waitingTime="0.00" waitingCount="0" stopTime="0.00" timeLoss="45.37" rerouteNo="0" devices="tripinfo_C_17" vType="typeC" speedFactor="1.09" vaporized=""/>
    <tripinfo id="B_6" depart="15.00" departLane="B_0" departPos="4.10" departSpeed="5.45" departDelay="1.00" arrival="410.00" arrivalLane="Y_0" arrivalPos="20.00" arrivalSpeed="12.28" duration="395.00" routeLength="6519.90" waitingTime="0.00" waitingCount="0" stopTime="0.00" timeLoss="48.49" rerouteNo="1" devices="tripinfo_B_6" vType="typeB" speedFactor="0.94" vaporized=""/>
    <tripinfo id="A_13" depart="32.00" departLane="A_0" departPos="4.10" departSpeed="3.47" departDelay="1.00" arrival="411.00" arrivalLane="X_0" arrivalPos="20.00" arrivalSpeed="12.01" duration="379.00" routeLength="6519.90" waitingTime="0.00" waitingCount="0" stopTime="0.00" timeLoss="6.83" rerouteNo="0" devices="tripinfo_A_13" vType="typeA" speedFactor="0.88" vaporized=""/>
    <tripinfo id="A_14" depart="34.00" departLane="A_0" departPos="4.10" departSpeed="4.56" departDelay="0.00" arrival="412.00" arrivalLane="X_0" arrivalPos="20.00" arrivalSpeed="12.01" duration="378.00" routeLength="6519.90" waitingTime="0.00" waitingCount="0" stopTime="0.00" timeLoss="50.66" rerouteNo="0" devices="tripinfo_A_14" vType="typeA" speedFactor="1.00" vaporized=""/>
    <tripinfo id="C_18" depart="36.00" departLane="C_0" departPos="4.10" departSpeed="6.39" departDelay="6.00" arrival="414.00" arrivalLane="Y_0" arrivalPos="20.00" arrivalSpeed="10.40" duration="378.00" routeLength="6519.90" waitingTime="3.00" waitingCount="1" stopTime="0.00" timeLoss="15.94" rerouteNo="0" devices="tripinfo_C_18" vType="typeC" speedFactor="0.90" vaporized=""/>
    <tripinfo id="B_7" depart="17.00" departLane="B_0" departPos="4.10" departSpeed="6.04" departDelay="1.00" arrival="416.00" arrivalLane="X_0" arrivalPos="20.00" arrivalSpeed="10.40" duration="399.00" routeLength="6519.90" waitingTime="2.00" waitingCount="1" stopTime="0.00" timeLoss="72.96" rerouteNo="1" devices="tripinfo_B_7" vType="typeB" speedFactor="1.02" vaporized=""/>
    <tripinfo id="B_8" depart="18.00" departLane="B_0" departPos="4.10" departSpeed="4.04" departDelay="1.00" arrival="418.00" arrivalLane="Y_0" arrivalPos="20.00" arrivalSpeed="13.00" duration="400.00" routeLength="6519.90" waitingTime="2.00" waitingCount="1" stopTime="0.00" timeLoss="65.27" rerouteNo="1" devices="tripinfo_B_8" vType="typeB" speedFactor="0.98" vaporized=""/>
    <tripinfo id="B_9" depart="20.00" departLane="B_0" departPos="4.10" departSpeed="5.41" departDelay="2.00" arrival="419.00" arrivalLane="Y_0" arrivalPos="20.00" arrivalSpeed="13.34" duration="399.00" routeLength="6519.90" waitingTime="0.00" waitingCount="0" stopTime="0.00" timeLoss="4.13" rerouteNo="1" devices="tripinfo_B_9" vType="typeB" speedFactor="0.83" vaporized=""/>
    <tripinfo id="A_15" depart="36.00" departLane="A_0" departPos="4.10" departSpeed="5.93" departDelay="1.00" arrival="419.00" arrivalLane="X_0" arrivalPos="20.00" arrivalSpeed="10.40" duration="383.00" routeLength="6519.90" waitingTime="3.00" waitingCount="1" stopTime="0.00" timeLoss="56.96" rerouteNo="0" devices="tripinfo_A_15" vType="typeA" speedFactor="1.14" vaporized=""/>
    <tripinfo id="B_10" depart="22.00" departLane="B_0" departPos="4.10" departSpeed="1.78" departDelay="2.00" arrival="421.00" arrivalLane="Y_0" arrivalPos="20.00" arrivalSpeed="15.94" duration="399.00" routeLength="6519.90" waitingTime="0.00" waitingCount="0" stopTime="0.00" timeLoss="72.50" rerouteNo="1" devices="tripinfo_B_10" vType="typeB" speedFactor="1.13" vaporized=""/>
    <tripinfo id="A_16" depart="38.00" departLane="A_0" departPos="4.10" departSpeed="8.64" departDelay="2.00" arrival="421.00" arrivalLane="X_0" arrivalPos="20.00" arrivalSpeed="13.00" duration="383.00" routeLength="6519.90" waitingTime="3.00" waitingCount="1" stopTime="0.00" timeLoss="56.63" rerouteNo="0" devices="tripinfo_A_16" vType="typeA" speedFactor="1.08" vaporized=""/>
    <tripinfo id="B_11" depart="24.00" departLane="B_0" departPos="4.10" departSpeed="5.92" departDelay="2.00" arrival="422.00" arrivalLane="Y_0" arrivalPos="20.00" arrivalSpeed="15.94" duration="398.00" routeLength="6519.90" waitingTime="0.00" waitingCount="0" stopTime="0.00" timeLoss="71.83" rerouteNo="1" devices="tripinfo_B_11" vType="typeB" speedFactor="1.18" vaporized=""/>
    <tripinfo id="A_17" depart="39.00" departLane="A_0" departPos="4.10" departSpeed="5.38" departDelay="2.00" arrival="422.00" arrivalLane="X_0" arrivalPos="20.00" arrivalSpeed="13.00" duration="383.00" routeLength="6519.90" waitingTime="3.00" waitingCount="1" stopTime="0.00" timeLoss="56.96" rerouteNo="0" devices="tripinfo_A_17" vType="typeA" speedFactor="1.02" vaporized=""/>
    <tripinfo id="A_18" depart="41.00" departLane="A_0" departPos="4.10" departSpeed="7.43" departDelay="3.00" arrival="424.00" arrivalLane="X_0" arrivalPos="20.00" arrivalSpeed="15.60" duration="383.00" routeLength="6519.90" waitingTime="3.00" waitingCount="1" stopTime="0.00" timeLoss="12.95" rerouteNo="0" devices="tripinfo_A_18" vType="typeA" speedFactor="0.88" vaporized=""/>
    <tripinfo id="A_19" depart="42.00" departLane="A_0" departPos="4.10" departSpeed="3.85" departDelay="3.00" arrival="425.00" arrivalLane="X_0" arrivalPos="20.00" arrivalSpeed="15.60" duration="383.00" routeLength="6519.90" waitingTime="3.00" waitingCount="1" stopTime="0.00" timeLoss="56.83" rerouteNo="0" devices="tripinfo_A_19" vType="typeA" speedFactor="1.04" vaporized=""/>
    <tripinfo id="C_19" depart="38.00" departLane="C_0" departPos="4.10" departSpeed="8.94" departDelay="7.00" arrival="427.00" arrivalLane="Y_0" arrivalPos="20.00" arrivalSpeed="10.40" duration="389.00" routeLength="6519.90" waitingTime="2.00" waitingCount="1" stopTime="0.00" timeLoss="7.63" rerouteNo="0" devices="tripinfo_C_19" vType="typeC" speedFactor="0.85" vaporized=""/>
    <tripinfo id="A_20" depart="44.00" departLane="A_0" departPos="4.10" departSpeed="0.28" departDelay="4.00" arrival="427.00" arrivalLane="X_0" arrivalPos="20.00" arrivalSpeed="18.20" duration="383.00" routeLength="6519.90" waitingTime="3.00" waitingCount="1" stopTime="0.00" timeLoss="47.14" rerouteNo="0" devices="tripinfo_A_20" vType="typeA" speedFactor="0.97" vaporized=""/>
    <tripinfo id="A_21" depart="46.00" departLane="A_0" departPos="4.10" departSpeed="2.85" departDelay="5.00" arrival="428.00" arrivalLane="X_0" arrivalPos="20.00" arrivalSpeed="18.20" duration="382.00" routeLength="6519.90" waitingTime="3.00" waitingCount="1" stopTime="0.00" timeLoss="40.23" rerouteNo="0" devices="tripinfo_A_21" vType="typeA" speedFactor="0.96" vaporized=""/>
    <tripinfo id="A_22" depart="48.00" departLane="A_0" departPos="4.10" departSpeed="2.76" departDelay="6.00" arrival="429.00" arrivalLane="X_0" arrivalPos="20.00" arrivalSpeed="18.20" duration="381.00" routeLength="6519.90" waitingTime="3.00" waitingCount="1" stopTime="0.00" timeLoss="48.89" rerouteNo="0" devices="tripinfo_A_22" vType="typeA" speedFactor="0.98" vaporized=""/>
    <tripinfo id="B_12" depart="26.00" departLane="B_0" departPos="4.10" departSpeed="8.23" departDelay="3.00" arrival="430.00" arrivalLane="Y_0" arrivalPos="20.00" arrivalSpeed="10.40" duration="404.00" routeLength="6519.90" waitingTime="3.00" waitingCount="1" stopTime="0.00" timeLoss="77.92" rerouteNo="1" devices="tripinfo_B_12" vType="typeB" speedFactor="1.17" vaporized=""/>
    <tripinfo id="A_23" depart="50.00" departLane="A_0" departPos="4.10" departSpeed="2.47" departDelay="7.00" arrival="431.00" arrivalLane="X_0" arrivalPos="20.00" arrivalSpeed="20.00" duration="381.00" routeLength="6519.90" waitingTime="3.00" waitingCount="1" stopTime="0.00" timeLoss="54.22" rerouteNo="0" devices="tripinfo_A_23" vType="typeA" speedFactor="1.01" vaporized=""/>
    <tripinfo id="A_24" depart="52.00" departLane="A_0" departPos="4.10" departSpeed="1.61" departDelay="8.00" arrival="432.00" arrivalLane="X_0" arrivalPos="20.00" arrivalSpeed="20.00" duration="380.00" routeLength="6519.90" waitingTime="3.00" waitingCount="1" stopTime="0.00" timeLoss="53.54" rerouteNo="0" devices="tripinfo_A_24" vType="typeA" speedFactor="1.03" vaporized=""/>
    <tripinfo id="C_20" depart="39.00" departLane="C_0" departPos="4.10" departSpeed="2.82" departDelay="7.00" arrival="433.00" arrivalLane="Y_0" arrivalPos="20.00" arrivalSpeed="10.40" duration="394.00" routeLength="6519.90" waitingTime="5.00" waitingCount="2" stopTime="0.00" timeLoss="67.96" rerouteNo="0" devices="tripinfo_C_20" vType="typeC" speedFactor="1.02" vaporized=""/>
    <tripinfo id="C_21" depart="41.00" departLane="C_0" departPos="4.10" departSpeed="3.07" departDelay="8.00" arrival="435.00" arrivalLane="Y_0" arrivalPos="20.00" arrivalSpeed="13.00" duration="394.00" routeLength="6519.90" waitingTime="5.00" waitingCount="2" stopTime="0.00" timeLoss="67.63" rerouteNo="0" devices="tripinfo_C_21" vType="typeC" speedFactor="1.00" vaporized=""/>
    <tripinfo id="B_13" depart="27.00" departLane="B_0" departPos="4.10" departSpeed="4.98" departDelay="3.00" arrival="437.00" arrivalLane="X_0" arrivalPos="20.00" arrivalSpeed="10.40" duration="410.00" routeLength="6519.90" waitingTime="7.00" waitingCount="2" stopTime="0.00" timeLoss="82.26" rerouteNo="1" devices="tripinfo_B_13" vType="typeB" speedFactor="0.99" vaporized=""/>
    <tripinfo id="B_14" depart="29.00" departLane="B_0" departPos="4.10" departSpeed="1.67" departDelay="3.00" arrival="439.00" arrivalLane="Y_0" arrivalPos="20.00" arrivalSpeed="13.00" duration="410.00" routeLength="6519.90" waitingTime="7.00" waitingCount="2" stopTime="0.00" timeLoss="74.65" rerouteNo="1" devices="tripinfo_B_14" vType="typeB" speedFactor="0.97" vaporized=""/>
    <tripinfo id="A_25" depart="55.00" departLane="A_0" departPos="4.10" departSpeed="3.68" departDelay="10.00" arrival="440.00" arrivalLane="X_0" arrivalPos="20.00" arrivalSpeed="10.40" duration="385.00" routeLength="6519.90" waitingTime="6.00" waitingCount="2" stopTime="0.00" timeLoss="47.83" rerouteNo="0" devices="tripinfo_A_25" vType="typeA" speedFactor="0.97" vaporized=""/>
    <tripinfo id="C_22" depart="43.00" departLane="C_0" departPos="4.10" departSpeed="1.99" departDelay="8.00" arrival="442.00" arrivalLane="Y_0" arrivalPos="20.00" arrivalSpeed="10.40" duration="399.00" routeLength="6519.90" waitingTime="8.00" waitingCount="3" stopTime="0.00" timeLoss="62.71" rerouteNo="0" devices="tripinfo_C_22" vType="typeC" speedFactor="0.97" vaporized=""/>
    <tripinfo id="A_26" depart="57.00" departLane="A_0" departPos="4.10" departSpeed="8.78" departDelay="11.00" arrival="442.00" arrivalLane="X_0" arrivalPos="20.00" arrivalSpeed="13.00" duration="385.00" routeLength="6519.90" waitingTime="6.00" waitingCount="2" stopTime="0.00" timeLoss="58.63" rerouteNo="0" devices="tripinfo_A_26" vType="typeA" speedFactor="1.00" vaporized=""/>
    <tripinfo id="C_23" depart="45.00" departLane="C_0" departPos="4.10" departSpeed="6.24" departDelay="9.00" arrival="444.00" arrivalLane="Y_0" arrivalPos="20.00" arrivalSpeed="13.00" duration="399.00" routeLength="6519.90" waitingTime="8.00" waitingCount="3" stopTime="0.00" timeLoss="72.63" rerouteNo="0" devices="tripinfo_C_23" vType="typeC" speedFactor="1.12" vaporized=""/>
    <tripinfo id="B_15" depart="31.00" departLane="B_0" departPos="4.10" departSpeed="3.83" departDelay="4.00" arrival="445.00" arrivalLane="X_0" arrivalPos="20.00" arrivalSpeed="10.40" duration="414.00" routeLength="6519.90" waitingTime="9.00" waitingCount="3" stopTime="0.00" timeLoss="51.96" rerouteNo="1" devices="tripinfo_B_15" vType="typeB" speedFactor="0.90" vaporized=""/>
    <tripinfo id="B_16" depart="33.00" departLane="B_0" departPos="4.10" departSpeed="6.99" departDelay="5.00" arrival="447.00" arrivalLane="Y_0" arrivalPos="20.00" arrivalSpeed="13.00" duration="414.00" routeLength="6519.90" waitingTime="9.00" waitingCount="3" stopTime="0.00" timeLoss="73.01" rerouteNo="1" devices="tripinfo_B_16" vType="typeB" speedFactor="0.96" vaporized=""/>
    <tripinfo id="A_27" depart="58.00" departLane="A_0" departPos="4.10" departSpeed="5.53" departDelay="11.00" arrival="448.00" arrivalLane="X_0" arrivalPos="20.00" arrivalSpeed="10.40" duration="390.00" routeLength="6519.90" waitingTime="8.00" waitingCount="3" stopTime="0.00" timeLoss="63.96" rerouteNo="0" devices="tripinfo_A_27" vType="typeA" speedFactor="1.04" vaporized=""/>
    <tripinfo id="C_24" depart="47.00" departLane="C_0" departPos="4.10" departSpeed="8.71" departDelay="10.00" arrival="450.00" arrivalLane="Y_0" arrivalPos="20.00" arrivalSpeed="10.40" duration="403.00" routeLength="6519.90" waitingTime="10.00" waitingCount="4" stopTime="0.00" timeLoss="55.27" rerouteNo="0" devices="tripinfo_C_24" vType="typeC" speedFactor="0.94" vaporized=""/>
    <tripinfo id="A_28" depart="60.00" departLane="A_0" departPos="4.10" departSpeed="7.64" departDelay="12.00" arrival="450.00" arrivalLane="X_0" arrivalPos="20.00" arrivalSpeed="13.00" duration="390.00" routeLength="6519.90" waitingTime="8.00" waitingCount="3" stopTime="0.00" timeLoss="63.63" rerouteNo="0" devices="tripinfo_A_28" vType="typeA" speedFactor="1.02" vaporized=""/>
    <tripinfo id="C_25" depart="48.00" departLane="C_0" departPos="4.10" departSpeed="5.46" departDelay="10.00" arrival="452.00" arrivalLane="Y_0" arrivalPos="20.00" arrivalSpeed="13.00" duration="404.00" routeLength="6519.90" waitingTime="10.00" waitingCount="4" stopTime="0.00" timeLoss="47.15" rerouteNo="0" devices="tripinfo_C_25" vType="typeC" speedFactor="0.91" vaporized=""/>
    <tripinfo id="B_17" depart="34.00" departLane="B_0" departPos="4.10" departSpeed="4.74" departDelay="5.00" arrival="453.00" arrivalLane="X_0" arrivalPos="20.00" arrivalSpeed="10.40" duration="419.00" routeLength="6519.90" waitingTime="11.00" waitingCount="4" stopTime="0.00" timeLoss="92.96" rerouteNo="1" devices="tripinfo_B_17" vType="typeB" speedFactor="1.04" vaporized=""/>
    <tripinfo id="C_26" depart="50.00" departLane="C_0" departPos="4.10" departSpeed="7.54" departDelay="11.00" arrival="453.00" arrivalLane="Y_0" arrivalPos="20.00" arrivalSpeed="13.00" duration="403.00" routeLength="6519.90" waitingTime="10.00" waitingCount="4" stopTime="0.00" timeLoss="76.96" rerouteNo="0" devices="tripinfo_C_26" vType="typeC" speedFactor="1.02" vaporized=""/>
    <tripinfo id="B_18" depart="36.00" departLane="B_0" departPos="4.10" departSpeed="6.46" departDelay="6.00" arrival="455.00" arrivalLane="X_0" arrivalPos="20.00" arrivalSpeed="13.00" duration="419.00" routeLength="6519.90" waitingTime="11.00" waitingCount="4" stopTime="0.00" timeLoss="91.78" rerouteNo="1" devices="tripinfo_B_18" vType="typeB" speedFactor="1.00" vaporized=""/>
    <tripinfo id="C_27" depart="51.00" departLane="C_0" departPos="4.10" departSpeed="4.08" departDelay="11.00" arrival="455.00" arrivalLane="Y_0" arrivalPos="20.00" arrivalSpeed="15.60" duration="404.00" routeLength="6519.90" waitingTime="10.00" waitingCount="4" stopTime="0.00" timeLoss="77.50" rerouteNo="0" devices="tripinfo_C_27" vType="typeC" speedFactor="1.06" vaporized=""/>
    <tripinfo id="B_19" depart="38.00" departLane="B_0" departPos="4.10" departSpeed="7.93" departDelay="7.00" arrival="456.00" arrivalLane="X_0" arrivalPos="20.00" arrivalSpeed="13.00" duration="418.00" routeLength="6519.90" waitingTime="11.00" waitingCount="4" stopTime="0.00" timeLoss="34.58" rerouteNo="1" devices="tripinfo_B_19" vType="typeB" speedFactor="0.85" vaporized=""/>
    <tripinfo id="C_28" depart="53.00" departLane="C_0" departPos="4.10" departSpeed="2.29" departDelay="12.00" arrival="456.00" arrivalLane="Y_0" arrivalPos="20.00" arrivalSpeed="15.60" duration="403.00" routeLength="6519.90" waitingTime="10.00" waitingCount="4" stopTime="0.00" timeLoss="76.83" rerouteNo="0" devices="tripinfo_C_28" vType="typeC" speedFactor="1.03" vaporized=""/>
    <tripinfo id="B_20" depart="39.00" departLane="B_0" departPos="4.10" departSpeed="5.82" departDelay="7.00" arrival="458.00" arrivalLane="X_0" arrivalPos="20.00" arrivalSpeed="15.60" duration="419.00" routeLength="6519.90" waitingTime="11.00" waitingCount="4" stopTime="0.00" timeLoss="92.50" rerouteNo="1" devices="tripinfo_B_20" vType="typeB" speedFactor="1.17" vaporized=""/>