<?xml version="1.0" encoding="UTF-8"?>

<!-- generated on Wed Apr  7 11:52:27 2021 by Eclipse SUMO GUI Version 1.7.0
<configuration xmlns:xsi="http://www.w3.org/2001/XMLSchema-instance" xsi:noNamespaceSchemaLocation="http://sumo.dlr.de/xsd/sumoConfiguration.xsd">

    <input>
        <net-file value="./sumo_input/laneMerging.net.xml"/>
        <route-files value="./sumo_input/laneMerging.rou.xml"/>
        <additional-files value="./sumo_input/laneMerging.add.xml"/>
    </input>

    <output>
        <tripinfo-output value="tripinfo_dp.xml"/>
    </output>

    <report>
        <no-warnings value="true"/>
        <duration-log.disable value="true"/>
        <no-step-log value="true"/>
    </report>

    <traci_server>
        <remote-port value="57990"/>
    </traci_server>

    <gui_only>
        <gui-settings-file value="./sumo_input/laneMerging.view.xml"/>
        <start value="true"/>
    </gui_only>

</configuration>
-->

<tripinfos xmlns:xsi="http://www.w3.org/2001/XMLSchema-instance" xsi:noNamespaceSchemaLocation="http://sumo.dlr.de/xsd/tripinfo_file.xsd">
    <tripinfo id="A_1" depart="0.00" departLane="E1_2" departPos="5.10" departSpeed="13.12" departDelay="0.00" arrival="359.00" arrivalLane="E2_0" arrivalPos="300.00" arrivalSpeed="14.72" duration="359.00" routeLength="794.90" waitingTime="301.00" waitingCount="1" stopTime="0.00" timeLoss="304.45" rerouteNo="0" devices="tripinfo_A_1" vType="typeA" speedFactor="1.06" vaporized=""/>
    <tripinfo id="A_2" depart="1.00" departLane="E1_2" departPos="5.10" departSpeed="9.29" departDelay="0.00" arrival="666.00" arrivalLane="E2_0" arrivalPos="300.00" arrivalSpeed="13.03" duration="665.00" routeLength="794.90" waitingTime="597.00" waitingCount="2" stopTime="0.00" timeLoss="604.10" rerouteNo="0" devices="tripinfo_A_2" vType="typeA" speedFactor="0.94" vaporized=""/>
    <tripinfo id="A_3" depart="2.00" departLane="E1_2" departPos="5.10" departSpeed="0.64" departDelay="0.00" arrival="970.00" arrivalLane="E2_0" arrivalPos="300.00" arrivalSpeed="14.03" duration="968.00" routeLength="794.90" waitingTime="897.00" waitingCount="3" stopTime="0.00" timeLoss="910.81" rerouteNo="0" devices="tripinfo_A_3" vType="typeA" speedFactor="1.01" vaporized=""/>
</tripinfos>
