<?xml version="1.0" encoding="UTF-8"?>

<!-- generated on Sun Jan 10 19:33:35 2021 by Eclipse SUMO GUI Version 1.7.0
<configuration xmlns:xsi="http://www.w3.org/2001/XMLSchema-instance" xsi:noNamespaceSchemaLocation="http://sumo.dlr.de/xsd/sumoConfiguration.xsd">

    <input>
        <net-file value="laneMerging.net.xml"/>
        <route-files value="laneMerging.rou.xml"/>
        <additional-files value="laneMerging.add.xml"/>
    </input>

    <output>
        <tripinfo-output value="tripinfo_fcfg.xml"/>
    </output>

    <report>
        <no-warnings value="true"/>
        <duration-log.disable value="true"/>
        <no-step-log value="true"/>
    </report>

    <traci_server>
        <remote-port value="50060"/>
    </traci_server>

    <gui_only>
        <gui-settings-file value="laneMerging.view.xml"/>
        <start value="true"/>
    </gui_only>

</configuration>
-->

<tripinfos xmlns:xsi="http://www.w3.org/2001/XMLSchema-instance" xsi:noNamespaceSchemaLocation="http://sumo.dlr.de/xsd/tripinfo_file.xsd">
    <tripinfo id="A_1" depart="5.00" departLane="E1_1" departPos="5.10" departSpeed="13.12" departDelay="0.00" arrival="59.00" arrivalLane="E2_0" arrivalPos="300.00" arrivalSpeed="14.72" duration="54.00" routeLength="794.90" waitingTime="0.00" waitingCount="0" stopTime="0.00" timeLoss="0.01" rerouteNo="0" devices="tripinfo_A_1" vType="typeA" speedFactor="1.06" vaporized=""/>
    <tripinfo id="B_1" depart="10.00" departLane="E1_0" departPos="5.10" departSpeed="9.29" departDelay="0.00" arrival="72.00" arrivalLane="E2_0" arrivalPos="300.00" arrivalSpeed="13.03" duration="62.00" routeLength="794.90" waitingTime="0.00" waitingCount="0" stopTime="0.00" timeLoss="0.23" rerouteNo="0" devices="tripinfo_B_1" vType="typeB" speedFactor="0.94" vaporized=""/>
    <tripinfo id="A_2" depart="11.00" departLane="E1_1" departPos="5.10" departSpeed="0.64" departDelay="0.00" arrival="78.00" arrivalLane="E2_0" arrivalPos="300.00" arrivalSpeed="14.03" duration="67.00" routeLength="794.90" waitingTime="0.00" waitingCount="0" stopTime="0.00" timeLoss="9.83" rerouteNo="0" devices="tripinfo_A_2" vType="typeA" speedFactor="1.01" vaporized=""/>
    <tripinfo id="B_2" depart="18.00" departLane="E1_0" departPos="5.10" departSpeed="7.39" departDelay="0.00" arrival="83.00" arrivalLane="E2_0" arrivalPos="300.00" arrivalSpeed="15.04" duration="65.00" routeLength="794.90" waitingTime="2.00" waitingCount="1" stopTime="0.00" timeLoss="11.67" rerouteNo="0" devices="tripinfo_B_2" vType="typeB" speedFactor="1.08" vaporized=""/>
    <tripinfo id="A_3" depart="21.00" departLane="E1_1" departPos="5.10" departSpeed="8.44" departDelay="0.00" arrival="90.00" arrivalLane="E2_0" arrivalPos="300.00" arrivalSpeed="14.31" duration="69.00" routeLength="794.90" waitingTime="4.00" waitingCount="1" stopTime="0.00" timeLoss="12.77" rerouteNo="0" devices="tripinfo_A_3" vType="typeA" speedFactor="1.03" vaporized=""/>
    <tripinfo id="A_4" depart="23.00" departLane="E1_1" departPos="5.10" departSpeed="0.50" departDelay="0.00" arrival="97.00" arrivalLane="E2_0" arrivalPos="300.00" arrivalSpeed="11.54" duration="74.00" routeLength="794.90" waitingTime="0.00" waitingCount="0" stopTime="0.00" timeLoss="4.39" rerouteNo="0" devices="tripinfo_A_4" vType="typeA" speedFactor="0.83" vaporized=""/>
    <tripinfo id="A_5" depart="26.00" departLane="E1_1" departPos="5.10" departSpeed="3.60" departDelay="1.00" arrival="101.00" arrivalLane="E2_0" arrivalPos="300.00" arrivalSpeed="14.53" duration="75.00" routeLength="794.90" waitingTime="1.00" waitingCount="1" stopTime="0.00" timeLoss="19.35" rerouteNo="0" devices="tripinfo_A_5" vType="typeA" speedFactor="1.05" vaporized=""/>
    <tripinfo id="B_3" depart="29.00" departLane="E1_0" departPos="5.10" departSpeed="0.08" departDelay="0.00" arrival="107.00" arrivalLane="E2_0" arrivalPos="300.00" arrivalSpeed="13.03" duration="78.00" routeLength="794.90" waitingTime="6.00" waitingCount="1" stopTime="0.00" timeLoss="16.94" rerouteNo="0" devices="tripinfo_B_3" vType="typeB" speedFactor="0.94" vaporized=""/>
    <tripinfo id="A_6" depart="28.00" departLane="E1_1" departPos="5.10" departSpeed="4.78" departDelay="1.00" arrival="114.00" arrivalLane="E2_0" arrivalPos="300.00" arrivalSpeed="12.31" duration="86.00" routeLength="794.90" waitingTime="6.00" waitingCount="2" stopTime="0.00" timeLoss="20.48" rerouteNo="0" devices="tripinfo_A_6" vType="typeA" speedFactor="0.89" vaporized=""/>
    <tripinfo id="A_7" depart="33.00" departLane="E1_1" departPos="5.10" departSpeed="0.86" departDelay="0.00" arrival="115.00" arrivalLane="E2_0" arrivalPos="300.00" arrivalSpeed="13.81" duration="82.00" routeLength="794.90" waitingTime="6.00" waitingCount="2" stopTime="0.00" timeLoss="25.86" rerouteNo="0" devices="tripinfo_A_7" vType="typeA" speedFactor="1.03" vaporized=""/>
    <tripinfo id="A_8" depart="38.00" departLane="E1_1" departPos="5.10" departSpeed="8.00" departDelay="0.00" arrival="119.00" arrivalLane="E2_0" arrivalPos="300.00" arrivalSpeed="15.60" duration="81.00" routeLength="794.90" waitingTime="8.00" waitingCount="3" stopTime="0.00" timeLoss="29.05" rerouteNo="0" devices="tripinfo_A_8" vType="typeA" speedFactor="1.12" vaporized=""/>
    <tripinfo id="B_4" depart="32.00" departLane="E1_0" departPos="5.10" departSpeed="3.45" departDelay="2.00" arrival="128.00" arrivalLane="E2_0" arrivalPos="300.00" arrivalSpeed="11.90" duration="96.00" routeLength="794.90" waitingTime="17.00" waitingCount="2" stopTime="0.00" timeLoss="28.98" rerouteNo="0" devices="tripinfo_B_4" vType="typeB" speedFactor="0.86" vaporized=""/>
    <tripinfo id="B_5" depart="34.00" departLane="E1_0" departPos="5.10" departSpeed="3.39" departDelay="2.00" arrival="130.00" arrivalLane="E2_0" arrivalPos="300.00" arrivalSpeed="15.15" duration="96.00" routeLength="794.90" waitingTime="17.00" waitingCount="2" stopTime="0.00" timeLoss="42.95" rerouteNo="0" devices="tripinfo_B_5" vType="typeB" speedFactor="1.09" vaporized=""/>
    <tripinfo id="B_6" depart="36.00" departLane="E1_0" departPos="5.10" departSpeed="0.67" departDelay="2.00" arrival="135.00" arrivalLane="E2_0" arrivalPos="300.00" arrivalSpeed="14.54" duration="99.00" routeLength="794.90" waitingTime="18.00" waitingCount="3" stopTime="0.00" timeLoss="43.40" rerouteNo="0" devices="tripinfo_B_6" vType="typeB" speedFactor="1.05" vaporized=""/>
    <tripinfo id="B_7" depart="39.00" departLane="E1_0" departPos="5.10" departSpeed="4.23" departDelay="0.00" arrival="140.00" arrivalLane="E2_0" arrivalPos="300.00" arrivalSpeed="13.77" duration="101.00" routeLength="794.90" waitingTime="18.00" waitingCount="3" stopTime="0.00" timeLoss="42.91" rerouteNo="0" devices="tripinfo_B_7" vType="typeB" speedFactor="0.99" vaporized=""/>
    <tripinfo id="B_8" depart="41.00" departLane="E1_0" departPos="5.10" departSpeed="5.20" departDelay="0.00" arrival="147.00" arrivalLane="E2_0" arrivalPos="300.00" arrivalSpeed="12.87" duration="106.00" routeLength="794.90" waitingTime="19.00" waitingCount="4" stopTime="0.00" timeLoss="43.44" rerouteNo="0" devices="tripinfo_B_8" vType="typeB" speedFactor="0.93" vaporized=""/>
    <tripinfo id="B_9" depart="43.00" departLane="E1_0" departPos="5.10" departSpeed="6.12" departDelay="1.00" arrival="152.00" arrivalLane="E2_0" arrivalPos="300.00" arrivalSpeed="12.20" duration="109.00" routeLength="794.90" waitingTime="18.00" waitingCount="4" stopTime="0.00" timeLoss="43.79" rerouteNo="0" devices="tripinfo_B_9" vType="typeB" speedFactor="0.88" vaporized=""/>
    <tripinfo id="A_9" depart="47.00" departLane="E1_1" departPos="5.10" departSpeed="11.61" departDelay="0.00" arrival="156.00" arrivalLane="E2_0" arrivalPos="300.00" arrivalSpeed="13.08" duration="109.00" routeLength="794.90" waitingTime="34.00" waitingCount="3" stopTime="0.00" timeLoss="48.10" rerouteNo="0" devices="tripinfo_A_9" vType="typeA" speedFactor="0.94" vaporized=""/>
    <tripinfo id="B_10" depart="56.00" departLane="E1_0" departPos="5.10" departSpeed="8.76" departDelay="0.00" arrival="158.00" arrivalLane="E2_0" arrivalPos="300.00" arrivalSpeed="16.09" duration="102.00" routeLength="794.90" waitingTime="22.00" waitingCount="4" stopTime="0.00" timeLoss="52.43" rerouteNo="0" devices="tripinfo_B_10" vType="typeB" speedFactor="1.16" vaporized=""/>
    <tripinfo id="A_10" depart="55.00" departLane="E1_1" departPos="5.10" departSpeed="5.16" departDelay="0.00" arrival="166.00" arrivalLane="E2_0" arrivalPos="300.00" arrivalSpeed="13.00" duration="111.00" routeLength="794.90" waitingTime="35.00" waitingCount="2" stopTime="0.00" timeLoss="49.87" rerouteNo="0" devices="tripinfo_A_10" vType="typeA" speedFactor="0.94" vaporized=""/>
    <tripinfo id="A_11" depart="57.00" departLane="E1_1" departPos="5.10" departSpeed="3.35" departDelay="0.00" arrival="170.00" arrivalLane="E2_0" arrivalPos="300.00" arrivalSpeed="14.14" duration="113.00" routeLength="794.90" waitingTime="35.00" waitingCount="2" stopTime="0.00" timeLoss="55.98" rerouteNo="0" devices="tripinfo_A_11" vType="typeA" speedFactor="1.02" vaporized=""/>
    <tripinfo id="B_11" depart="63.00" departLane="E1_0" departPos="5.10" departSpeed="0.45" departDelay="0.00" arrival="175.00" arrivalLane="E2_0" arrivalPos="300.00" arrivalSpeed="14.03" duration="112.00" routeLength="794.90" waitingTime="22.00" waitingCount="5" stopTime="0.00" timeLoss="54.99" rerouteNo="0" devices="tripinfo_B_11" vType="typeB" speedFactor="1.01" vaporized=""/>
    <tripinfo id="A_12" depart="64.00" departLane="E1_1" departPos="5.10" departSpeed="4.09" departDelay="0.00" arrival="181.00" arrivalLane="E2_0" arrivalPos="300.00" arrivalSpeed="13.54" duration="117.00" routeLength="794.90" waitingTime="39.00" waitingCount="3" stopTime="0.00" timeLoss="57.55" rerouteNo="0" devices="tripinfo_A_12" vType="typeA" speedFactor="0.98" vaporized=""/>
    <tripinfo id="A_13" depart="66.00" departLane="E1_1" departPos="5.10" departSpeed="1.97" departDelay="1.00" arrival="187.00" arrivalLane="E2_0" arrivalPos="300.00" arrivalSpeed="12.36" duration="121.00" routeLength="794.90" waitingTime="35.00" waitingCount="3" stopTime="0.00" timeLoss="56.35" rerouteNo="0" devices="tripinfo_A_13" vType="typeA" speedFactor="0.89" vaporized=""/>
    <tripinfo id="B_12" depart="68.00" departLane="E1_0" departPos="5.10" departSpeed="9.83" departDelay="0.00" arrival="194.00" arrivalLane="E2_0" arrivalPos="300.00" arrivalSpeed="11.47" duration="126.00" routeLength="794.90" waitingTime="28.00" waitingCount="5" stopTime="0.00" timeLoss="56.27" rerouteNo="0" devices="tripinfo_B_12" vType="typeB" speedFactor="0.83" vaporized=""/>
    <tripinfo id="B_13" depart="69.00" departLane="E1_0" departPos="5.10" departSpeed="8.33" departDelay="0.00" arrival="197.00" arrivalLane="E2_0" arrivalPos="300.00" arrivalSpeed="12.74" duration="128.00" routeLength="794.90" waitingTime="28.00" waitingCount="5" stopTime="0.00" timeLoss="64.68" rerouteNo="0" devices="tripinfo_B_13" vType="typeB" speedFactor="0.92" vaporized=""/>
    <tripinfo id="A_14" depart="69.00" departLane="E1_1" departPos="5.10" departSpeed="0.36" departDelay="0.00" arrival="203.00" arrivalLane="E2_0" arrivalPos="300.00" arrivalSpeed="12.12" duration="134.00" routeLength="794.90" waitingTime="43.00" waitingCount="4" stopTime="0.00" timeLoss="67.80" rerouteNo="0" devices="tripinfo_A_14" vType="typeA" speedFactor="0.87" vaporized=""/>
    <tripinfo id="B_14" depart="73.00" departLane="E1_0" departPos="5.10" departSpeed="12.48" departDelay="0.00" arrival="207.00" arrivalLane="E2_0" arrivalPos="300.00" arrivalSpeed="12.94" duration="134.00" routeLength="794.90" waitingTime="34.00" waitingCount="6" stopTime="0.00" timeLoss="71.65" rerouteNo="0" devices="tripinfo_B_14" vType="typeB" speedFactor="0.93" vaporized=""/>
    <tripinfo id="B_15" depart="77.00" departLane="E1_0" departPos="5.10" departSpeed="3.65" departDelay="0.00" arrival="208.00" arrivalLane="E2_0" arrivalPos="300.00" arrivalSpeed="14.44" duration="131.00" routeLength="794.90" waitingTime="34.00" waitingCount="6" stopTime="0.00" timeLoss="82.09" rerouteNo="0" devices="tripinfo_B_15" vType="typeB" speedFactor="1.18" vaporized=""/>
    <tripinfo id="A_15" depart="72.00" departLane="E1_1" departPos="5.10" departSpeed="1.65" departDelay="2.00" arrival="214.00" arrivalLane="E2_0" arrivalPos="300.00" arrivalSpeed="13.18" duration="142.00" routeLength="794.90" waitingTime="51.00" waitingCount="5" stopTime="0.00" timeLoss="81.43" rerouteNo="0" devices="tripinfo_A_15" vType="typeA" speedFactor="0.95" vaporized=""/>
    <tripinfo id="A_16" depart="74.00" departLane="E1_1" departPos="5.10" departSpeed="2.80" departDelay="1.00" arrival="216.00" arrivalLane="E2_0" arrivalPos="300.00" arrivalSpeed="15.72" duration="142.00" routeLength="794.90" waitingTime="51.00" waitingCount="5" stopTime="0.00" timeLoss="91.18" rerouteNo="0" devices="tripinfo_A_16" vType="typeA" speedFactor="1.13" vaporized=""/>
    <tripinfo id="A_17" depart="78.00" departLane="E1_1" departPos="5.10" departSpeed="2.69" departDelay="0.00" arrival="221.00" arrivalLane="E2_0" arrivalPos="300.00" arrivalSpeed="16.04" duration="143.00" routeLength="794.90" waitingTime="52.00" waitingCount="6" stopTime="0.00" timeLoss="93.05" rerouteNo="0" devices="tripinfo_A_17" vType="typeA" speedFactor="1.15" vaporized=""/>
    <tripinfo id="B_16" depart="86.00" departLane="E1_0" departPos="5.10" departSpeed="3.93" departDelay="0.00" arrival="226.00" arrivalLane="E2_0" arrivalPos="300.00" arrivalSpeed="16.28" duration="140.00" routeLength="794.90" waitingTime="49.00" waitingCount="6" stopTime="0.00" timeLoss="90.59" rerouteNo="0" devices="tripinfo_B_16" vType="typeB" speedFactor="1.17" vaporized=""/>
    <tripinfo id="A_18" depart="84.00" departLane="E1_1" departPos="5.10" departSpeed="7.98" departDelay="0.00" arrival="233.00" arrivalLane="E2_0" arrivalPos="300.00" arrivalSpeed="13.96" duration="149.00" routeLength="794.90" waitingTime="55.00" waitingCount="7" stopTime="0.00" timeLoss="91.79" rerouteNo="0" devices="tripinfo_A_18" vType="typeA" speedFactor="1.01" vaporized=""/>
    <tripinfo id="A_19" depart="93.00" departLane="E1_1" departPos="5.10" departSpeed="11.22" departDelay="0.00" arrival="238.00" arrivalLane="E2_0" arrivalPos="300.00" arrivalSpeed="13.82" duration="145.00" routeLength="794.90" waitingTime="48.00" waitingCount="7" stopTime="0.00" timeLoss="87.06" rerouteNo="0" devices="tripinfo_A_19" vType="typeA" speedFactor="0.99" vaporized=""/>
    <tripinfo id="B_17" depart="94.00" departLane="E1_0" departPos="5.10" departSpeed="9.03" departDelay="0.00" arrival="244.00" arrivalLane="E2_0" arrivalPos="300.00" arrivalSpeed="13.52" duration="150.00" routeLength="794.90" waitingTime="58.00" waitingCount="6" stopTime="0.00" timeLoss="90.47" rerouteNo="0" devices="tripinfo_B_17" vType="typeB" speedFactor="0.97" vaporized=""/>
    <tripinfo id="A_20" depart="94.00" departLane="E1_1" departPos="5.10" departSpeed="1.26" departDelay="0.00" arrival="248.00" arrivalLane="E2_0" arrivalPos="300.00" arrivalSpeed="14.16" duration="154.00" routeLength="794.90" waitingTime="52.00" waitingCount="8" stopTime="0.00" timeLoss="97.36" rerouteNo="0" devices="tripinfo_A_20" vType="typeA" speedFactor="1.02" vaporized=""/>
    <tripinfo id="A_21" depart="101.00" departLane="E1_1" departPos="5.10" departSpeed="11.72" departDelay="0.00" arrival="251.00" arrivalLane="E2_0" arrivalPos="300.00" arrivalSpeed="16.39" duration="150.00" routeLength="794.90" waitingTime="52.00" waitingCount="8" stopTime="0.00" timeLoss="100.52" rerouteNo="0" devices="tripinfo_A_21" vType="typeA" speedFactor="1.18" vaporized=""/>
    <tripinfo id="A_22" depart="103.00" departLane="E1_1" departPos="5.10" departSpeed="9.13" departDelay="0.00" arrival="257.00" arrivalLane="E2_0" arrivalPos="300.00" arrivalSpeed="15.31" duration="154.00" routeLength="794.90" waitingTime="52.00" waitingCount="9" stopTime="0.00" timeLoss="101.35" rerouteNo="0" devices="tripinfo_A_22" vType="typeA" speedFactor="1.10" vaporized=""/>
    <tripinfo id="B_18" depart="111.00" departLane="E1_0" departPos="5.10" departSpeed="13.38" departDelay="0.00" arrival="263.00" arrivalLane="E2_0" arrivalPos="300.00" arrivalSpeed="14.31" duration="152.00" routeLength="794.90" waitingTime="67.00" waitingCount="6" stopTime="0.00" timeLoss="95.77" rerouteNo="0" devices="tripinfo_B_18" vType="typeB" speedFactor="1.03" vaporized=""/>
    <tripinfo id="A_23" depart="106.00" departLane="E1_1" departPos="5.10" departSpeed="8.65" departDelay="0.00" arrival="270.00" arrivalLane="E2_0" arrivalPos="300.00" arrivalSpeed="12.51" duration="164.00" routeLength="794.90" waitingTime="51.00" waitingCount="10" stopTime="0.00" timeLoss="100.20" rerouteNo="0" devices="tripinfo_A_23" vType="typeA" speedFactor="0.90" vaporized=""/>
    <tripinfo id="B_19" depart="118.00" departLane="E1_0" departPos="5.10" departSpeed="4.67" departDelay="0.00" arrival="272.00" arrivalLane="E2_0" arrivalPos="300.00" arrivalSpeed="15.17" duration="154.00" routeLength="794.90" waitingTime="67.00" waitingCount="7" stopTime="0.00" timeLoss="101.25" rerouteNo="0" devices="tripinfo_B_19" vType="typeB" speedFactor="1.09" vaporized=""/>
    <tripinfo id="A_24" depart="117.00" departLane="E1_1" departPos="5.10" departSpeed="12.76" departDelay="0.00" arrival="279.00" arrivalLane="E2_0" arrivalPos="300.00" arrivalSpeed="13.29" duration="162.00" routeLength="794.90" waitingTime="51.00" waitingCount="10" stopTime="0.00" timeLoss="101.79" rerouteNo="0" devices="tripinfo_A_24" vType="typeA" speedFactor="0.96" vaporized=""/>
    <tripinfo id="A_25" depart="124.00" departLane="E1_1" departPos="5.10" departSpeed="7.10" departDelay="0.00" arrival="282.00" arrivalLane="E2_0" arrivalPos="300.00" arrivalSpeed="14.41" duration="158.00" routeLength="794.90" waitingTime="48.00" waitingCount="9" stopTime="0.00" timeLoss="102.74" rerouteNo="0" devices="tripinfo_A_25" vType="typeA" speedFactor="1.04" vaporized=""/>
    <tripinfo id="B_20" depart="129.00" departLane="E1_0" departPos="5.10" departSpeed="8.41" departDelay="0.00" arrival="288.00" arrivalLane="E2_0" arrivalPos="300.00" arrivalSpeed="14.49" duration="159.00" routeLength="794.90" waitingTime="70.00" waitingCount="7" stopTime="0.00" timeLoss="103.26" rerouteNo="0" devices="tripinfo_B_20" vType="typeB" speedFactor="1.04" vaporized=""/>
    <tripinfo id="B_21" depart="135.00" departLane="E1_0" departPos="5.10" departSpeed="2.55" departDelay="0.00" arrival="292.00" arrivalLane="E2_0" arrivalPos="300.00" arrivalSpeed="15.11" duration="157.00" routeLength="794.90" waitingTime="65.00" waitingCount="7" stopTime="0.00" timeLoss="103.56" rerouteNo="0" devices="tripinfo_B_21" vType="typeB" speedFactor="1.09" vaporized=""/>
    <tripinfo id="A_26" depart="138.00" departLane="E1_1" departPos="5.10" departSpeed="13.23" departDelay="0.00" arrival="298.00" arrivalLane="E2_0" arrivalPos="300.00" arrivalSpeed="13.85" duration="160.00" routeLength="794.90" waitingTime="53.00" waitingCount="9" stopTime="0.00" timeLoss="102.48" rerouteNo="0" devices="tripinfo_A_26" vType="typeA" speedFactor="1.00" vaporized=""/>
    <tripinfo id="B_22" depart="138.00" departLane="E1_0" departPos="5.10" departSpeed="2.29" departDelay="0.00" arrival="305.00" arrivalLane="E2_0" arrivalPos="300.00" arrivalSpeed="12.51" duration="167.00" routeLength="794.90" waitingTime="68.00" waitingCount="7" stopTime="0.00" timeLoss="103.20" rerouteNo="0" devices="tripinfo_B_22" vType="typeB" speedFactor="0.90" vaporized=""/>
    <tripinfo id="B_23" depart="150.00" departLane="E1_0" departPos="5.10" departSpeed="4.53" departDelay="0.00" arrival="307.00" arrivalLane="E2_0" arrivalPos="300.00" arrivalSpeed="16.24" duration="157.00" routeLength="794.90" waitingTime="66.00" waitingCount="7" stopTime="0.00" timeLoss="107.48" rerouteNo="0" devices="tripinfo_B_23" vType="typeB" speedFactor="1.17" vaporized=""/>
    <tripinfo id="A_27" depart="142.00" departLane="E1_1" departPos="5.10" departSpeed="7.82" departDelay="0.00" arrival="316.00" arrivalLane="E2_0" arrivalPos="300.00" arrivalSpeed="12.18" duration="174.00" routeLength="794.90" waitingTime="61.00" waitingCount="10" stopTime="0.00" timeLoss="108.02" rerouteNo="0" devices="tripinfo_A_27" vType="typeA" speedFactor="0.88" vaporized=""/>
    <tripinfo id="A_28" depart="145.00" departLane="E1_1" departPos="5.10" departSpeed="1.79" departDelay="0.00" arrival="321.00" arrivalLane="E2_0" arrivalPos="300.00" arrivalSpeed="11.81" duration="176.00" routeLength="794.90" waitingTime="57.00" waitingCount="10" stopTime="0.00" timeLoss="108.33" rerouteNo="0" devices="tripinfo_A_28" vType="typeA" speedFactor="0.85" vaporized=""/>
    <tripinfo id="A_29" depart="147.00" departLane="E1_1" departPos="5.10" departSpeed="0.33" departDelay="0.00" arrival="326.00" arrivalLane="E2_0" arrivalPos="300.00" arrivalSpeed="11.87" duration="179.00" routeLength="794.90" waitingTime="57.00" waitingCount="11" stopTime="0.00" timeLoss="111.87" rerouteNo="0" devices="tripinfo_A_29" vType="typeA" speedFactor="0.85" vaporized=""/>
    <tripinfo id="A_30" depart="153.00" departLane="E1_1" departPos="5.10" departSpeed="7.72" departDelay="0.00" arrival="328.00" arrivalLane="E2_0" arrivalPos="300.00" arrivalSpeed="14.12" duration="175.00" routeLength="794.90" waitingTime="57.00" waitingCount="11" stopTime="0.00" timeLoss="118.30" rerouteNo="0" devices="tripinfo_A_30" vType="typeA" speedFactor="1.02" vaporized=""/>
    <tripinfo id="A_31" depart="154.00" departLane="E1_1" departPos="5.10" departSpeed="7.65" departDelay="0.00" arrival="332.00" arrivalLane="E2_0" arrivalPos="300.00" arrivalSpeed="15.22" duration="178.00" routeLength="794.90" waitingTime="58.00" waitingCount="12" stopTime="0.00" timeLoss="125.13" rerouteNo="0" devices="tripinfo_A_31" vType="typeA" speedFactor="1.10" vaporized=""/>
    <tripinfo id="A_32" depart="161.00" departLane="E1_1" departPos="5.10" departSpeed="0.93" departDelay="0.00" arrival="338.00" arrivalLane="E2_0" arrivalPos="300.00" arrivalSpeed="13.93" duration="177.00" routeLength="794.90" waitingTime="54.00" waitingCount="11" stopTime="0.00" timeLoss="119.39" rerouteNo="0" devices="tripinfo_A_32" vType="typeA" speedFactor="1.00" vaporized=""/>
    <tripinfo id="A_33" depart="164.00" departLane="E1_1" departPos="5.10" departSpeed="4.34" departDelay="1.00" arrival="343.00" arrivalLane="E2_0" arrivalPos="300.00" arrivalSpeed="13.83" duration="179.00" routeLength="794.90" waitingTime="55.00" waitingCount="12" stopTime="0.00" timeLoss="121.42" rerouteNo="0" devices="tripinfo_A_33" vType="typeA" speedFactor="1.00" vaporized=""/>
    <tripinfo id="A_34" depart="166.00" departLane="E1_1" departPos="5.10" departSpeed="1.37" departDelay="1.00" arrival="346.00" arrivalLane="E2_0" arrivalPos="300.00" arrivalSpeed="15.87" duration="180.00" routeLength="794.90" waitingTime="55.00" waitingCount="12" stopTime="0.00" timeLoss="129.36" rerouteNo="0" devices="tripinfo_A_34" vType="typeA" speedFactor="1.14" vaporized=""/>
    <tripinfo id="B_24" depart="163.00" departLane="E1_0" departPos="5.10" departSpeed="12.39" departDelay="0.00" arrival="355.00" arrivalLane="E2_0" arrivalPos="300.00" arrivalSpeed="12.49" duration="192.00" routeLength="794.90" waitingTime="96.00" waitingCount="7" stopTime="0.00" timeLoss="128.12" rerouteNo="0" devices="tripinfo_B_24" vType="typeB" speedFactor="0.90" vaporized=""/>
    <tripinfo id="B_25" depart="167.00" departLane="E1_0" departPos="5.10" departSpeed="8.06" departDelay="0.00" arrival="357.00" arrivalLane="E2_0" arrivalPos="300.00" arrivalSpeed="14.22" duration="190.00" routeLength="794.90" waitingTime="96.00" waitingCount="7" stopTime="0.00" timeLoss="133.32" rerouteNo="0" devices="tripinfo_B_25" vType="typeB" speedFactor="1.02" vaporized=""/>
    <tripinfo id="A_35" depart="174.00" departLane="E1_1" departPos="5.10" departSpeed="2.72" departDelay="0.00" arrival="360.00" arrivalLane="E2_0" arrivalPos="300.00" arrivalSpeed="15.04" duration="186.00" routeLength="794.90" waitingTime="59.00" waitingCount="13" stopTime="0.00" timeLoss="132.66" rerouteNo="0" devices="tripinfo_A_35" vType="typeA" speedFactor="1.08" vaporized=""/>
    <tripinfo id="B_26" depart="172.00" departLane="E1_0" departPos="5.10" departSpeed="2.79" departDelay="0.00" arrival="367.00" arrivalLane="E2_0" arrivalPos="300.00" arrivalSpeed="13.47" duration="195.00" routeLength="794.90" waitingTime="96.00" waitingCount="8" stopTime="0.00" timeLoss="135.32" rerouteNo="0" devices="tripinfo_B_26" vType="typeB" speedFactor="0.97" vaporized=""/>
    <tripinfo id="A_36" depart="176.00" departLane="E1_1" departPos="5.10" departSpeed="0.73" departDelay="0.00" arrival="370.00" arrivalLane="E2_0" arrivalPos="300.00" arrivalSpeed="15.55" duration="194.00" routeLength="794.90" waitingTime="63.00" waitingCount="14" stopTime="0.00" timeLoss="141.93" rerouteNo="0" devices="tripinfo_A_36" vType="typeA" speedFactor="1.12" vaporized=""/>
    <tripinfo id="B_27" depart="179.00" departLane="E1_0" departPos="5.10" departSpeed="1.13" departDelay="0.00" arrival="376.00" arrivalLane="E2_0" arrivalPos="300.00" arrivalSpeed="14.11" duration="197.00" routeLength="794.90" waitingTime="98.00" waitingCount="8" stopTime="0.00" timeLoss="140.21" rerouteNo="0" devices="tripinfo_B_27" vType="typeB" speedFactor="1.02" vaporized=""/>
    <tripinfo id="A_37" depart="186.00" departLane="E1_1" departPos="5.10" departSpeed="9.90" departDelay="0.00" arrival="382.00" arrivalLane="E2_0" arrivalPos="300.00" arrivalSpeed="13.71" duration="196.00" routeLength="794.90" waitingTime="65.00" waitingCount="13" stopTime="0.00" timeLoss="137.05" rerouteNo="0" devices="tripinfo_A_37" vType="typeA" speedFactor="0.99" vaporized=""/>
    <tripinfo id="A_38" depart="189.00" departLane="E1_1" departPos="5.10" departSpeed="4.58" departDelay="0.00" arrival="387.00" arrivalLane="E2_0" arrivalPos="300.00" arrivalSpeed="13.02" duration="198.00" routeLength="794.90" waitingTime="65.00" waitingCount="13" stopTime="0.00" timeLoss="136.62" rerouteNo="0" devices="tripinfo_A_38" vType="typeA" speedFactor="0.94" vaporized=""/>
    <tripinfo id="B_28" depart="191.00" departLane="E1_0" departPos="5.10" departSpeed="3.55" departDelay="0.00" arrival="394.00" arrivalLane="E2_0" arrivalPos="300.00" arrivalSpeed="12.26" duration="203.00" routeLength="794.90" waitingTime="98.00" waitingCount="8" stopTime="0.00" timeLoss="137.29" rerouteNo="0" devices="tripinfo_B_28" vType="typeB" speedFactor="0.88" vaporized=""/>
    <tripinfo id="B_29" depart="193.00" departLane="E1_0" departPos="5.10" departSpeed="5.92" departDelay="1.00" arrival="398.00" arrivalLane="E2_0" arrivalPos="300.00" arrivalSpeed="12.60" duration="205.00" routeLength="794.90" waitingTime="98.00" waitingCount="8" stopTime="0.00" timeLoss="141.18" rerouteNo="0" devices="tripinfo_B_29" vType="typeB" speedFactor="0.91" vaporized=""/>
    <tripinfo id="A_39" depart="199.00" departLane="E1_1" departPos="5.10" departSpeed="7.28" departDelay="0.00" arrival="401.00" arrivalLane="E2_0" arrivalPos="300.00" arrivalSpeed="14.20" duration="202.00" routeLength="794.90" waitingTime="72.00" waitingCount="14" stopTime="0.00" timeLoss="145.46" rerouteNo="0" devices="tripinfo_A_39" vType="typeA" speedFactor="1.02" vaporized=""/>
    <tripinfo id="B_30" depart="196.00" departLane="E1_0" departPos="5.10" departSpeed="5.38" departDelay="0.00" arrival="408.00" arrivalLane="E2_0" arrivalPos="300.00" arrivalSpeed="12.70" duration="212.00" routeLength="794.90" waitingTime="104.00" waitingCount="9" stopTime="0.00" timeLoss="148.87" rerouteNo="0" devices="tripinfo_B_30" vType="typeB" speedFactor="0.91" vaporized=""/>
    <tripinfo id="B_31" depart="198.00" departLane="E1_0" departPos="5.10" departSpeed="5.63" departDelay="1.00" arrival="410.00" arrivalLane="E2_0" arrivalPos="300.00" arrivalSpeed="14.44" duration="212.00" routeLength="794.90" waitingTime="104.00" waitingCount="9" stopTime="0.00" timeLoss="156.82" rerouteNo="0" devices="tripinfo_B_31" vType="typeB" speedFactor="1.04" vaporized=""/>
    <tripinfo id="B_32" depart="200.00" departLane="E1_0" departPos="5.10" departSpeed="8.31" departDelay="1.00" arrival="416.00" arrivalLane="E2_0" arrivalPos="300.00" arrivalSpeed="14.21" duration="216.00" routeLength="794.90" waitingTime="105.00" waitingCount="10" stopTime="0.00" timeLoss="159.49" rerouteNo="0" devices="tripinfo_B_32" vType="typeB" speedFactor="1.02" vaporized=""/>
    <tripinfo id="A_40" depart="209.00" departLane="E1_1" departPos="5.10" departSpeed="5.64" departDelay="0.00" arrival="422.00" arrivalLane="E2_0" arrivalPos="300.00" arrivalSpeed="13.51" duration="213.00" routeLength="794.90" waitingTime="83.00" waitingCount="14" stopTime="0.00" timeLoss="153.46" rerouteNo="0" devices="tripinfo_A_40" vType="typeA" speedFactor="0.97" vaporized=""/>
    <tripinfo id="A_41" depart="213.00" departLane="E1_1" departPos="5.10" departSpeed="14.28" departDelay="0.00" arrival="425.00" arrivalLane="E2_0" arrivalPos="300.00" arrivalSpeed="14.66" duration="212.00" routeLength="794.90" waitingTime="83.00" waitingCount="14" stopTime="0.00" timeLoss="157.41" rerouteNo="0" devices="tripinfo_A_41" vType="typeA" speedFactor="1.06" vaporized=""/>
    <tripinfo id="B_33" depart="212.00" departLane="E1_0" departPos="5.10" departSpeed="4.77" departDelay="0.00" arrival="432.00" arrivalLane="E2_0" arrivalPos="300.00" arrivalSpeed="13.06" duration="220.00" routeLength="794.90" waitingTime="106.00" waitingCount="11" stopTime="0.00" timeLoss="159.04" rerouteNo="0" devices="tripinfo_B_33" vType="typeB" speedFactor="0.94" vaporized=""/>
    <tripinfo id="A_42" depart="217.00" departLane="E1_1" departPos="5.10" departSpeed="4.14" departDelay="0.00" arrival="437.00" arrivalLane="E2_0" arrivalPos="300.00" arrivalSpeed="13.68" duration="220.00" routeLength="794.90" waitingTime="86.00" waitingCount="14" stopTime="0.00" timeLoss="160.96" rerouteNo="0" devices="tripinfo_A_42" vType="typeA" speedFactor="0.98" vaporized=""/>