<?xml version="1.0" encoding="UTF-8"?>

<!-- generated on Fri Feb 26 16:18:47 2021 by Eclipse SUMO GUI Version 1.7.0
<configuration xmlns:xsi="http://www.w3.org/2001/XMLSchema-instance" xsi:noNamespaceSchemaLocation="http://sumo.dlr.de/xsd/sumoConfiguration.xsd">

    <input>
        <net-file value="laneMerging.net.xml"/>
        <route-files value="laneMerging.rou.xml"/>
        <additional-files value="laneMerging.add.xml"/>
    </input>

    <output>
        <tripinfo-output value="tripinfo_dp.xml"/>
    </output>

    <report>
        <no-warnings value="true"/>
        <duration-log.disable value="true"/>
        <no-step-log value="true"/>
    </report>

    <traci_server>
        <remote-port value="49283"/>
    </traci_server>

    <gui_only>
        <gui-settings-file value="laneMerging.view.xml"/>
        <start value="true"/>
    </gui_only>

</configuration>
-->

<tripinfos xmlns:xsi="http://www.w3.org/2001/XMLSchema-instance" xsi:noNamespaceSchemaLocation="http://sumo.dlr.de/xsd/tripinfo_file.xsd">
    <tripinfo id="A_1" depart="1.00" departLane="E1_1" departPos="5.10" departSpeed="13.12" departDelay="0.00" arrival="55.00" arrivalLane="E2_0" arrivalPos="300.00" arrivalSpeed="14.72" duration="54.00" routeLength="794.90" waitingTime="0.00" waitingCount="0" stopTime="0.00" timeLoss="0.01" rerouteNo="0" devices="tripinfo_A_1" vType="typeA" speedFactor="1.06" vaporized=""/>
    <tripinfo id="B_1" depart="1.00" departLane="E1_0" departPos="5.10" departSpeed="9.29" departDelay="0.00" arrival="63.00" arrivalLane="E2_0" arrivalPos="300.00" arrivalSpeed="13.03" duration="62.00" routeLength="794.90" waitingTime="0.00" waitingCount="0" stopTime="0.00" timeLoss="0.33" rerouteNo="0" devices="tripinfo_B_1" vType="typeB" speedFactor="0.94" vaporized=""/>
    <tripinfo id="A_2" depart="7.00" departLane="E1_1" departPos="5.10" departSpeed="10.64" departDelay="0.00" arrival="65.00" arrivalLane="E2_0" arrivalPos="300.00" arrivalSpeed="14.31" duration="58.00" routeLength="794.90" waitingTime="0.00" waitingCount="0" stopTime="0.00" timeLoss="2.07" rerouteNo="0" devices="tripinfo_A_2" vType="typeA" speedFactor="1.03" vaporized=""/>
    <tripinfo id="B_2" depart="3.00" departLane="E1_0" departPos="5.10" departSpeed="0.64" departDelay="0.00" arrival="72.00" arrivalLane="E2_0" arrivalPos="300.00" arrivalSpeed="14.03" duration="69.00" routeLength="794.90" waitingTime="1.00" waitingCount="1" stopTime="0.00" timeLoss="12.00" rerouteNo="0" devices="tripinfo_B_2" vType="typeB" speedFactor="1.01" vaporized=""/>
    <tripinfo id="B_3" depart="6.00" departLane="E1_0" departPos="5.10" departSpeed="0.66" departDelay="2.00" arrival="74.00" arrivalLane="E2_0" arrivalPos="300.00" arrivalSpeed="15.04" duration="68.00" routeLength="794.90" waitingTime="1.00" waitingCount="1" stopTime="0.00" timeLoss="14.24" rerouteNo="0" devices="tripinfo_B_3" vType="typeB" speedFactor="1.08" vaporized=""/>
    <tripinfo id="A_3" depart="12.00" departLane="E1_1" departPos="5.10" departSpeed="7.92" departDelay="0.00" arrival="79.00" arrivalLane="E2_0" arrivalPos="300.00" arrivalSpeed="14.53" duration="67.00" routeLength="794.90" waitingTime="3.00" waitingCount="1" stopTime="0.00" timeLoss="11.35" rerouteNo="0" devices="tripinfo_A_3" vType="typeA" speedFactor="1.05" vaporized=""/>
    <tripinfo id="B_4" depart="11.00" departLane="E1_0" departPos="5.10" departSpeed="2.86" departDelay="0.00" arrival="85.00" arrivalLane="E2_0" arrivalPos="300.00" arrivalSpeed="11.54" duration="74.00" routeLength="794.90" waitingTime="0.00" waitingCount="0" stopTime="0.00" timeLoss="4.29" rerouteNo="0" devices="tripinfo_B_4" vType="typeB" speedFactor="0.83" vaporized=""/>
    <tripinfo id="B_5" depart="13.00" departLane="E1_0" departPos="5.10" departSpeed="4.81" departDelay="0.00" arrival="86.00" arrivalLane="E2_0" arrivalPos="300.00" arrivalSpeed="12.31" duration="73.00" routeLength="794.90" waitingTime="0.00" waitingCount="0" stopTime="0.00" timeLoss="8.18" rerouteNo="0" devices="tripinfo_B_5" vType="typeB" speedFactor="0.89" vaporized=""/>
    <tripinfo id="B_6" depart="15.00" departLane="E1_0" departPos="5.10" departSpeed="5.51" departDelay="0.00" arrival="88.00" arrivalLane="E2_0" arrivalPos="300.00" arrivalSpeed="11.90" duration="73.00" routeLength="794.90" waitingTime="0.00" waitingCount="0" stopTime="0.00" timeLoss="5.80" rerouteNo="0" devices="tripinfo_B_6" vType="typeB" speedFactor="0.86" vaporized=""/>
    <tripinfo id="B_7" depart="23.00" departLane="E1_0" departPos="5.10" departSpeed="0.94" departDelay="0.00" arrival="90.00" arrivalLane="E2_0" arrivalPos="300.00" arrivalSpeed="15.08" duration="67.00" routeLength="794.90" waitingTime="0.00" waitingCount="0" stopTime="0.00" timeLoss="15.19" rerouteNo="0" devices="tripinfo_B_7" vType="typeB" speedFactor="1.12" vaporized=""/>
    <tripinfo id="B_8" depart="34.00" departLane="E1_0" departPos="5.10" departSpeed="8.34" departDelay="0.00" arrival="100.00" arrivalLane="E2_0" arrivalPos="300.00" arrivalSpeed="12.20" duration="66.00" routeLength="794.90" waitingTime="0.00" waitingCount="0" stopTime="0.00" timeLoss="0.26" rerouteNo="0" devices="tripinfo_B_8" vType="typeB" speedFactor="0.88" vaporized=""/>
    <tripinfo id="A_4" depart="14.00" departLane="E1_1" departPos="5.10" departSpeed="0.08" departDelay="0.00" arrival="103.00" arrivalLane="E2_0" arrivalPos="300.00" arrivalSpeed="13.03" duration="89.00" routeLength="794.90" waitingTime="16.00" waitingCount="1" stopTime="0.00" timeLoss="27.32" rerouteNo="0" devices="tripinfo_A_4" vType="typeA" speedFactor="0.94" vaporized=""/>
    <tripinfo id="A_5" depart="17.00" departLane="E1_1" departPos="5.10" departSpeed="3.45" departDelay="0.00" arrival="104.00" arrivalLane="E2_0" arrivalPos="300.00" arrivalSpeed="14.53" duration="87.00" routeLength="794.90" waitingTime="16.00" waitingCount="1" stopTime="0.00" timeLoss="34.36" rerouteNo="0" devices="tripinfo_A_5" vType="typeA" speedFactor="1.09" vaporized=""/>
    <tripinfo id="A_6" depart="20.00" departLane="E1_1" departPos="5.10" departSpeed="6.44" departDelay="0.00" arrival="106.00" arrivalLane="E2_0" arrivalPos="300.00" arrivalSpeed="14.26" duration="86.00" routeLength="794.90" waitingTime="16.00" waitingCount="1" stopTime="0.00" timeLoss="29.60" rerouteNo="0" devices="tripinfo_A_6" vType="typeA" speedFactor="1.03" vaporized=""/>
    <tripinfo id="A_7" depart="22.00" departLane="E1_1" departPos="5.10" departSpeed="3.85" departDelay="1.00" arrival="107.00" arrivalLane="E2_0" arrivalPos="300.00" arrivalSpeed="14.54" duration="85.00" routeLength="794.90" waitingTime="16.00" waitingCount="1" stopTime="0.00" timeLoss="30.22" rerouteNo="0" devices="tripinfo_A_7" vType="typeA" speedFactor="1.05" vaporized=""/>
    <tripinfo id="A_8" depart="27.00" departLane="E1_1" departPos="5.10" departSpeed="12.05" departDelay="0.00" arrival="109.00" arrivalLane="E2_0" arrivalPos="300.00" arrivalSpeed="13.77" duration="82.00" routeLength="794.90" waitingTime="15.00" waitingCount="1" stopTime="0.00" timeLoss="23.76" rerouteNo="0" devices="tripinfo_A_8" vType="typeA" speedFactor="0.99" vaporized=""/>
    <tripinfo id="A_9" depart="33.00" departLane="E1_1" departPos="5.10" departSpeed="4.14" departDelay="0.00" arrival="111.00" arrivalLane="E2_0" arrivalPos="300.00" arrivalSpeed="12.87" duration="78.00" routeLength="794.90" waitingTime="7.00" waitingCount="1" stopTime="0.00" timeLoss="15.73" rerouteNo="0" devices="tripinfo_A_9" vType="typeA" speedFactor="0.93" vaporized=""/>
    <tripinfo id="A_10" depart="35.00" departLane="E1_1" departPos="5.10" departSpeed="0.60" departDelay="0.00" arrival="113.00" arrivalLane="E2_0" arrivalPos="300.00" arrivalSpeed="13.08" duration="78.00" routeLength="794.90" waitingTime="5.00" waitingCount="1" stopTime="0.00" timeLoss="16.25" rerouteNo="0" devices="tripinfo_A_10" vType="typeA" speedFactor="0.94" vaporized=""/>
    <tripinfo id="A_11" depart="38.00" departLane="E1_1" departPos="5.10" departSpeed="3.99" departDelay="1.00" arrival="116.00" arrivalLane="E2_0" arrivalPos="300.00" arrivalSpeed="13.00" duration="78.00" routeLength="794.90" waitingTime="5.00" waitingCount="1" stopTime="0.00" timeLoss="16.75" rerouteNo="0" devices="tripinfo_A_11" vType="typeA" speedFactor="0.94" vaporized=""/>
    <tripinfo id="A_12" depart="48.00" departLane="E1_1" departPos="5.10" departSpeed="10.19" departDelay="0.00" arrival="118.00" arrivalLane="E2_0" arrivalPos="300.00" arrivalSpeed="16.09" duration="70.00" routeLength="794.90" waitingTime="3.00" waitingCount="1" stopTime="0.00" timeLoss="19.98" rerouteNo="0" devices="tripinfo_A_12" vType="typeA" speedFactor="1.16" vaporized=""/>
    <tripinfo id="A_13" depart="56.00" departLane="E1_1" departPos="5.10" departSpeed="11.57" departDelay="0.00" arrival="121.00" arrivalLane="E2_0" arrivalPos="300.00" arrivalSpeed="14.03" duration="65.00" routeLength="794.90" waitingTime="0.00" waitingCount="0" stopTime="0.00" timeLoss="8.21" rerouteNo="0" devices="tripinfo_A_13" vType="typeA" speedFactor="1.01" vaporized=""/>
</tripinfos>
