<?xml version="1.0" encoding="UTF-8"?>

<!-- generated on Wed Mar 10 11:24:16 2021 by Eclipse SUMO GUI Version 1.7.0
<configuration xmlns:xsi="http://www.w3.org/2001/XMLSchema-instance" xsi:noNamespaceSchemaLocation="http://sumo.dlr.de/xsd/sumoConfiguration.xsd">

    <input>
        <net-file value="./sumo_input/laneMerging.net.xml"/>
        <route-files value="./sumo_input/laneMerging.rou.xml"/>
        <additional-files value="./sumo_input/laneMerging.add.xml"/>
    </input>

    <output>
        <tripinfo-output value="tripinfo_dp.xml"/>
    </output>

    <report>
        <no-warnings value="true"/>
        <duration-log.disable value="true"/>
        <no-step-log value="true"/>
    </report>

    <traci_server>
        <remote-port value="51348"/>
    </traci_server>

    <gui_only>
        <gui-settings-file value="./sumo_input/laneMerging.view.xml"/>
        <start value="true"/>
    </gui_only>

</configuration>
-->

<tripinfos xmlns:xsi="http://www.w3.org/2001/XMLSchema-instance" xsi:noNamespaceSchemaLocation="http://sumo.dlr.de/xsd/tripinfo_file.xsd">
    <tripinfo id="C_1" depart="5.00" departLane="E1_0" departPos="5.10" departSpeed="13.12" departDelay="0.00" arrival="59.00" arrivalLane="E2_0" arrivalPos="300.00" arrivalSpeed="14.72" duration="54.00" routeLength="794.90" waitingTime="0.00" waitingCount="0" stopTime="0.00" timeLoss="0.01" rerouteNo="0" devices="tripinfo_C_1" vType="typeC" speedFactor="1.06" vaporized=""/>
    <tripinfo id="C_2" depart="7.00" departLane="E1_0" departPos="5.10" departSpeed="9.29" departDelay="0.00" arrival="69.00" arrivalLane="E2_0" arrivalPos="300.00" arrivalSpeed="13.03" duration="62.00" routeLength="794.90" waitingTime="0.00" waitingCount="0" stopTime="0.00" timeLoss="0.23" rerouteNo="0" devices="tripinfo_C_2" vType="typeC" speedFactor="0.94" vaporized=""/>
    <tripinfo id="C_3" depart="12.00" departLane="E1_0" departPos="5.10" departSpeed="8.58" departDelay="0.00" arrival="81.00" arrivalLane="E2_0" arrivalPos="300.00" arrivalSpeed="11.54" duration="69.00" routeLength="794.90" waitingTime="0.00" waitingCount="0" stopTime="0.00" timeLoss="0.13" rerouteNo="0" devices="tripinfo_C_3" vType="typeC" speedFactor="0.83" vaporized=""/>
    <tripinfo id="C_4" depart="16.00" departLane="E1_0" departPos="5.10" departSpeed="8.28" departDelay="0.00" arrival="83.00" arrivalLane="E2_0" arrivalPos="300.00" arrivalSpeed="12.31" duration="67.00" routeLength="794.90" waitingTime="0.00" waitingCount="0" stopTime="0.00" timeLoss="1.95" rerouteNo="0" devices="tripinfo_C_4" vType="typeC" speedFactor="0.89" vaporized=""/>
    <tripinfo id="C_5" depart="17.00" departLane="E1_0" departPos="5.10" departSpeed="6.07" departDelay="0.00" arrival="85.00" arrivalLane="E2_0" arrivalPos="300.00" arrivalSpeed="13.03" duration="68.00" routeLength="794.90" waitingTime="0.00" waitingCount="0" stopTime="0.00" timeLoss="6.07" rerouteNo="0" devices="tripinfo_C_5" vType="typeC" speedFactor="0.94" vaporized=""/>
    <tripinfo id="C_6" depart="23.00" departLane="E1_0" departPos="5.10" departSpeed="3.77" departDelay="0.00" arrival="86.00" arrivalLane="E2_0" arrivalPos="300.00" arrivalSpeed="14.26" duration="63.00" routeLength="794.90" waitingTime="0.00" waitingCount="0" stopTime="0.00" timeLoss="6.85" rerouteNo="0" devices="tripinfo_C_6" vType="typeC" speedFactor="1.03" vaporized=""/>
</tripinfos>
