<?xml version="1.0" encoding="UTF-8"?>

<!-- generated on Thu Jan 21 14:36:24 2021 by Eclipse SUMO GUI Version 1.7.0
<configuration xmlns:xsi="http://www.w3.org/2001/XMLSchema-instance" xsi:noNamespaceSchemaLocation="http://sumo.dlr.de/xsd/sumoConfiguration.xsd">

    <input>
        <net-file value="laneMerging.net.xml"/>
        <route-files value="laneMerging.rou.xml"/>
        <additional-files value="laneMerging.add.xml"/>
    </input>

    <output>
        <tripinfo-output value="tripinfo_dp.xml"/>
    </output>

    <report>
        <no-warnings value="true"/>
        <duration-log.disable value="true"/>
        <no-step-log value="true"/>
    </report>

    <traci_server>
        <remote-port value="52352"/>
    </traci_server>

    <gui_only>
        <gui-settings-file value="laneMerging.view.xml"/>
        <start value="true"/>
    </gui_only>

</configuration>
-->

<tripinfos xmlns:xsi="http://www.w3.org/2001/XMLSchema-instance" xsi:noNamespaceSchemaLocation="http://sumo.dlr.de/xsd/tripinfo_file.xsd">
    <tripinfo id="C_1" depart="1.00" departLane="E1_0" departPos="5.10" departSpeed="13.12" departDelay="0.00" arrival="55.00" arrivalLane="E2_0" arrivalPos="300.00" arrivalSpeed="14.72" duration="54.00" routeLength="794.90" waitingTime="0.00" waitingCount="0" stopTime="0.00" timeLoss="0.01" rerouteNo="0" devices="tripinfo_C_1" vType="typeC" speedFactor="1.06" vaporized=""/>
    <tripinfo id="C_2" depart="3.00" departLane="E1_0" departPos="5.10" departSpeed="0.64" departDelay="0.00" arrival="64.00" arrivalLane="E2_0" arrivalPos="300.00" arrivalSpeed="14.03" duration="61.00" routeLength="794.90" waitingTime="0.00" waitingCount="0" stopTime="0.00" timeLoss="3.79" rerouteNo="0" devices="tripinfo_C_2" vType="typeC" speedFactor="1.01" vaporized=""/>
</tripinfos>
