<?xml version="1.0" encoding="UTF-8"?>

<!-- generated on Thu Jan 21 05:29:29 2021 by Eclipse SUMO GUI Version 1.7.0
<configuration xmlns:xsi="http://www.w3.org/2001/XMLSchema-instance" xsi:noNamespaceSchemaLocation="http://sumo.dlr.de/xsd/sumoConfiguration.xsd">

    <input>
        <net-file value="three_to_two.net.xml"/>
        <route-files value="laneMerging.rou.xml"/>
        <additional-files value="laneMerging.add.xml"/>
    </input>

    <output>
        <tripinfo-output value="tripinfo_dp.xml"/>
    </output>

    <report>
        <no-warnings value="true"/>
        <duration-log.disable value="true"/>
        <no-step-log value="true"/>
    </report>

    <traci_server>
        <remote-port value="50626"/>
    </traci_server>

    <gui_only>
        <gui-settings-file value="laneMerging.view.xml"/>
        <start value="true"/>
    </gui_only>

</configuration>
-->

<tripinfos xmlns:xsi="http://www.w3.org/2001/XMLSchema-instance" xsi:noNamespaceSchemaLocation="http://sumo.dlr.de/xsd/tripinfo_file.xsd">
    <tripinfo id="B_1" depart="3.00" departLane="E1_1" departPos="5.10" departSpeed="9.29" departDelay="0.00" arrival="65.00" arrivalLane="E2_0" arrivalPos="300.00" arrivalSpeed="13.03" duration="62.00" routeLength="794.90" waitingTime="0.00" waitingCount="0" stopTime="0.00" timeLoss="0.23" rerouteNo="0" devices="tripinfo_B_1" vType="typeB" speedFactor="0.94" vaporized=""/>
    <tripinfo id="B_2" depart="6.00" departLane="E1_1" departPos="5.10" departSpeed="0.64" departDelay="0.00" arrival="67.00" arrivalLane="E2_0" arrivalPos="300.00" arrivalSpeed="14.03" duration="61.00" routeLength="794.90" waitingTime="0.00" waitingCount="0" stopTime="0.00" timeLoss="3.79" rerouteNo="0" devices="tripinfo_B_2" vType="typeB" speedFactor="1.01" vaporized=""/>
    <tripinfo id="B_3" depart="19.00" departLane="E1_1" departPos="5.10" departSpeed="10.80" departDelay="0.00" arrival="74.00" arrivalLane="E2_0" arrivalPos="300.00" arrivalSpeed="14.53" duration="55.00" routeLength="794.90" waitingTime="0.00" waitingCount="0" stopTime="0.00" timeLoss="0.20" rerouteNo="0" devices="tripinfo_B_3" vType="typeB" speedFactor="1.05" vaporized=""/>
    <tripinfo id="C_1" depart="0.00" departLane="E1_0" departPos="5.10" departSpeed="13.12" departDelay="0.00" arrival="79.00" arrivalLane="E2_0" arrivalPos="300.00" arrivalSpeed="14.72" duration="79.00" routeLength="794.90" waitingTime="17.00" waitingCount="1" stopTime="0.00" timeLoss="24.87" rerouteNo="0" devices="tripinfo_C_1" vType="typeC" speedFactor="1.06" vaporized=""/>
    <tripinfo id="B_4" depart="27.00" departLane="E1_1" departPos="5.10" departSpeed="7.10" departDelay="0.00" arrival="89.00" arrivalLane="E2_0" arrivalPos="300.00" arrivalSpeed="13.03" duration="62.00" routeLength="794.90" waitingTime="0.00" waitingCount="0" stopTime="0.00" timeLoss="0.67" rerouteNo="0" devices="tripinfo_B_4" vType="typeB" speedFactor="0.94" vaporized=""/>
    <tripinfo id="B_5" depart="36.00" departLane="E1_1" departPos="5.10" departSpeed="0.09" departDelay="0.00" arrival="93.00" arrivalLane="E2_0" arrivalPos="300.00" arrivalSpeed="15.15" duration="57.00" routeLength="794.90" waitingTime="0.00" waitingCount="0" stopTime="0.00" timeLoss="4.49" rerouteNo="0" devices="tripinfo_B_5" vType="typeB" speedFactor="1.09" vaporized=""/>
    <tripinfo id="B_6" depart="39.00" departLane="E1_1" departPos="5.10" departSpeed="3.48" departDelay="1.00" arrival="98.00" arrivalLane="E2_0" arrivalPos="300.00" arrivalSpeed="14.26" duration="59.00" routeLength="794.90" waitingTime="0.00" waitingCount="0" stopTime="0.00" timeLoss="3.10" rerouteNo="0" devices="tripinfo_B_6" vType="typeB" speedFactor="1.03" vaporized=""/>
    <tripinfo id="B_7" depart="46.00" departLane="E1_1" departPos="5.10" departSpeed="6.58" departDelay="0.00" arrival="102.00" arrivalLane="E2_0" arrivalPos="300.00" arrivalSpeed="14.54" duration="56.00" routeLength="794.90" waitingTime="0.00" waitingCount="0" stopTime="0.00" timeLoss="1.19" rerouteNo="0" devices="tripinfo_B_7" vType="typeB" speedFactor="1.05" vaporized=""/>
    <tripinfo id="C_2" depart="6.00" departLane="E1_0" departPos="5.10" departSpeed="7.39" departDelay="0.00" arrival="107.00" arrivalLane="E2_0" arrivalPos="300.00" arrivalSpeed="15.04" duration="101.00" routeLength="794.90" waitingTime="35.00" waitingCount="2" stopTime="0.00" timeLoss="47.67" rerouteNo="0" devices="tripinfo_C_2" vType="typeC" speedFactor="1.08" vaporized=""/>
    <tripinfo id="B_8" depart="54.00" departLane="E1_1" departPos="5.10" departSpeed="3.93" departDelay="0.00" arrival="121.00" arrivalLane="E2_0" arrivalPos="300.00" arrivalSpeed="12.20" duration="67.00" routeLength="794.90" waitingTime="0.00" waitingCount="0" stopTime="0.00" timeLoss="1.55" rerouteNo="0" devices="tripinfo_B_8" vType="typeB" speedFactor="0.88" vaporized=""/>
    <tripinfo id="B_9" depart="59.00" departLane="E1_1" departPos="5.10" departSpeed="10.19" departDelay="0.00" arrival="123.00" arrivalLane="E2_0" arrivalPos="300.00" arrivalSpeed="15.20" duration="64.00" routeLength="794.90" waitingTime="0.00" waitingCount="0" stopTime="0.00" timeLoss="13.79" rerouteNo="0" devices="tripinfo_B_9" vType="typeB" speedFactor="1.16" vaporized=""/>
    <tripinfo id="B_10" depart="60.00" departLane="E1_1" departPos="5.10" departSpeed="10.44" departDelay="0.00" arrival="124.00" arrivalLane="E2_0" arrivalPos="300.00" arrivalSpeed="14.14" duration="64.00" routeLength="794.90" waitingTime="0.00" waitingCount="0" stopTime="0.00" timeLoss="7.48" rerouteNo="0" devices="tripinfo_B_10" vType="typeB" speedFactor="1.02" vaporized=""/>
    <tripinfo id="B_11" depart="61.00" departLane="E1_1" departPos="5.10" departSpeed="9.03" departDelay="0.00" arrival="126.00" arrivalLane="E2_0" arrivalPos="300.00" arrivalSpeed="14.03" duration="65.00" routeLength="794.90" waitingTime="0.00" waitingCount="0" stopTime="0.00" timeLoss="7.58" rerouteNo="0" devices="tripinfo_B_11" vType="typeB" speedFactor="1.01" vaporized=""/>
    <tripinfo id="B_12" depart="65.00" departLane="E1_1" departPos="5.10" departSpeed="12.02" departDelay="0.00" arrival="127.00" arrivalLane="E2_0" arrivalPos="300.00" arrivalSpeed="13.54" duration="62.00" routeLength="794.90" waitingTime="0.00" waitingCount="0" stopTime="0.00" timeLoss="3.15" rerouteNo="0" devices="tripinfo_B_12" vType="typeB" speedFactor="0.98" vaporized=""/>
    <tripinfo id="B_13" depart="68.00" departLane="E1_1" departPos="5.10" departSpeed="0.39" departDelay="0.00" arrival="137.00" arrivalLane="E2_0" arrivalPos="300.00" arrivalSpeed="12.12" duration="69.00" routeLength="794.90" waitingTime="0.00" waitingCount="0" stopTime="0.00" timeLoss="3.31" rerouteNo="0" devices="tripinfo_B_13" vType="typeB" speedFactor="0.87" vaporized=""/>
    <tripinfo id="B_14" depart="76.00" departLane="E1_1" departPos="5.10" departSpeed="10.08" departDelay="0.00" arrival="139.00" arrivalLane="E2_0" arrivalPos="300.00" arrivalSpeed="13.18" duration="63.00" routeLength="794.90" waitingTime="0.00" waitingCount="0" stopTime="0.00" timeLoss="2.08" rerouteNo="0" devices="tripinfo_B_14" vType="typeB" speedFactor="0.95" vaporized=""/>
    <tripinfo id="C_3" depart="7.00" departLane="E1_0" departPos="5.10" departSpeed="7.24" departDelay="0.00" arrival="141.00" arrivalLane="E2_0" arrivalPos="300.00" arrivalSpeed="14.31" duration="134.00" routeLength="794.90" waitingTime="62.00" waitingCount="3" stopTime="0.00" timeLoss="77.87" rerouteNo="0" devices="tripinfo_C_3" vType="typeC" speedFactor="1.03" vaporized=""/>
    <tripinfo id="C_4" depart="15.00" departLane="E1_0" departPos="5.10" departSpeed="0.50" departDelay="0.00" arrival="147.00" arrivalLane="E2_0" arrivalPos="300.00" arrivalSpeed="11.54" duration="132.00" routeLength="794.90" waitingTime="49.00" waitingCount="2" stopTime="0.00" timeLoss="62.22" rerouteNo="0" devices="tripinfo_C_4" vType="typeC" speedFactor="0.83" vaporized=""/>
    <tripinfo id="B_15" depart="92.00" departLane="E1_1" departPos="5.10" departSpeed="12.37" departDelay="0.00" arrival="154.00" arrivalLane="E2_0" arrivalPos="300.00" arrivalSpeed="12.94" duration="62.00" routeLength="794.90" waitingTime="0.00" waitingCount="0" stopTime="0.00" timeLoss="0.00" rerouteNo="0" devices="tripinfo_B_15" vType="typeB" speedFactor="0.93" vaporized=""/>
    <tripinfo id="C_5" depart="19.00" departLane="E1_0" departPos="5.10" departSpeed="3.05" departDelay="0.00" arrival="160.00" arrivalLane="E2_0" arrivalPos="300.00" arrivalSpeed="12.31" duration="141.00" routeLength="794.90" waitingTime="58.00" waitingCount="3" stopTime="0.00" timeLoss="75.48" rerouteNo="0" devices="tripinfo_C_5" vType="typeC" speedFactor="0.89" vaporized=""/>
    <tripinfo id="B_16" depart="108.00" departLane="E1_1" departPos="5.10" departSpeed="2.04" departDelay="0.00" arrival="162.00" arrivalLane="E2_0" arrivalPos="300.00" arrivalSpeed="16.28" duration="54.00" routeLength="794.90" waitingTime="0.00" waitingCount="0" stopTime="0.00" timeLoss="4.35" rerouteNo="0" devices="tripinfo_B_16" vType="typeB" speedFactor="1.17" vaporized=""/>
    <tripinfo id="B_17" depart="112.00" departLane="E1_1" departPos="5.10" departSpeed="5.68" departDelay="0.00" arrival="171.00" arrivalLane="E2_0" arrivalPos="300.00" arrivalSpeed="13.82" duration="59.00" routeLength="794.90" waitingTime="0.00" waitingCount="0" stopTime="0.00" timeLoss="1.32" rerouteNo="0" devices="tripinfo_B_17" vType="typeB" speedFactor="0.99" vaporized=""/>
    <tripinfo id="C_6" depart="32.00" departLane="E1_0" departPos="5.10" departSpeed="8.87" departDelay="0.00" arrival="179.00" arrivalLane="E2_0" arrivalPos="300.00" arrivalSpeed="11.90" duration="147.00" routeLength="794.90" waitingTime="63.00" waitingCount="4" stopTime="0.00" timeLoss="79.98" rerouteNo="0" devices="tripinfo_C_6" vType="typeC" speedFactor="0.86" vaporized=""/>
    <tripinfo id="B_18" depart="123.00" departLane="E1_1" departPos="5.10" departSpeed="3.57" departDelay="0.00" arrival="184.00" arrivalLane="E2_0" arrivalPos="300.00" arrivalSpeed="13.52" duration="61.00" routeLength="794.90" waitingTime="0.00" waitingCount="0" stopTime="0.00" timeLoss="2.09" rerouteNo="0" devices="tripinfo_B_18" vType="typeB" speedFactor="0.97" vaporized=""/>
    <tripinfo id="B_19" depart="127.00" departLane="E1_1" departPos="5.10" departSpeed="2.57" departDelay="0.00" arrival="186.00" arrivalLane="E2_0" arrivalPos="300.00" arrivalSpeed="15.31" duration="59.00" routeLength="794.90" waitingTime="0.00" waitingCount="0" stopTime="0.00" timeLoss="6.38" rerouteNo="0" devices="tripinfo_B_19" vType="typeB" speedFactor="1.10" vaporized=""/>
    <tripinfo id="C_7" depart="47.00" departLane="E1_0" departPos="5.10" departSpeed="8.83" departDelay="0.00" arrival="189.00" arrivalLane="E2_0" arrivalPos="300.00" arrivalSpeed="15.60" duration="142.00" routeLength="794.90" waitingTime="66.00" waitingCount="5" stopTime="0.00" timeLoss="90.05" rerouteNo="0" devices="tripinfo_C_7" vType="typeC" speedFactor="1.12" vaporized=""/>
    <tripinfo id="C_8" depart="52.00" departLane="E1_0" departPos="5.10" departSpeed="3.64" departDelay="0.00" arrival="192.00" arrivalLane="E2_0" arrivalPos="300.00" arrivalSpeed="13.77" duration="140.00" routeLength="794.90" waitingTime="60.00" waitingCount="4" stopTime="0.00" timeLoss="81.77" rerouteNo="0" devices="tripinfo_C_8" vType="typeC" speedFactor="0.99" vaporized=""/>
    <tripinfo id="B_20" depart="143.00" departLane="E1_1" departPos="5.10" departSpeed="10.31" departDelay="0.00" arrival="199.00" arrivalLane="E2_0" arrivalPos="300.00" arrivalSpeed="14.41" duration="56.00" routeLength="794.90" waitingTime="0.00" waitingCount="0" stopTime="0.00" timeLoss="0.26" rerouteNo="0" devices="tripinfo_B_20" vType="typeB" speedFactor="1.04" vaporized=""/>
    <tripinfo id="B_21" depart="149.00" departLane="E1_1" departPos="5.10" departSpeed="8.64" departDelay="0.00" arrival="205.00" arrivalLane="E2_0" arrivalPos="300.00" arrivalSpeed="14.49" duration="56.00" routeLength="794.90" waitingTime="0.00" waitingCount="0" stopTime="0.00" timeLoss="0.59" rerouteNo="0" devices="tripinfo_B_21" vType="typeB" speedFactor="1.04" vaporized=""/>
    <tripinfo id="B_22" depart="153.00" departLane="E1_1" departPos="5.10" departSpeed="10.45" departDelay="0.00" arrival="207.00" arrivalLane="E2_0" arrivalPos="300.00" arrivalSpeed="15.11" duration="54.00" routeLength="794.90" waitingTime="0.00" waitingCount="0" stopTime="0.00" timeLoss="0.44" rerouteNo="0" devices="tripinfo_B_22" vType="typeB" speedFactor="1.09" vaporized=""/>
    <tripinfo id="C_9" depart="54.00" departLane="E1_0" departPos="5.10" departSpeed="6.05" departDelay="1.00" arrival="215.00" arrivalLane="E2_0" arrivalPos="300.00" arrivalSpeed="12.87" duration="161.00" routeLength="794.90" waitingTime="75.00" waitingCount="5" stopTime="0.00" timeLoss="98.44" rerouteNo="0" devices="tripinfo_C_9" vType="typeC" speedFactor="0.93" vaporized=""/>
    <tripinfo id="C_10" depart="56.00" departLane="E1_0" departPos="5.10" departSpeed="6.71" departDelay="2.00" arrival="216.00" arrivalLane="E2_0" arrivalPos="300.00" arrivalSpeed="13.08" duration="160.00" routeLength="794.90" waitingTime="75.00" waitingCount="5" stopTime="0.00" timeLoss="98.97" rerouteNo="0" devices="tripinfo_C_10" vType="typeC" speedFactor="0.94" vaporized=""/>
    <tripinfo id="C_11" depart="58.00" departLane="E1_0" departPos="5.10" departSpeed="3.99" departDelay="0.00" arrival="218.00" arrivalLane="E2_0" arrivalPos="300.00" arrivalSpeed="13.00" duration="160.00" routeLength="794.90" waitingTime="74.00" waitingCount="5" stopTime="0.00" timeLoss="98.21" rerouteNo="0" devices="tripinfo_C_11" vType="typeC" speedFactor="0.94" vaporized=""/>
    <tripinfo id="C_12" depart="66.00" departLane="E1_0" departPos="5.10" departSpeed="4.90" departDelay="0.00" arrival="220.00" arrivalLane="E2_0" arrivalPos="300.00" arrivalSpeed="12.36" duration="154.00" routeLength="794.90" waitingTime="67.00" waitingCount="5" stopTime="0.00" timeLoss="89.48" rerouteNo="0" devices="tripinfo_C_12" vType="typeC" speedFactor="0.89" vaporized=""/>
    <tripinfo id="C_13" depart="68.00" departLane="E1_0" departPos="5.10" departSpeed="2.71" departDelay="1.00" arrival="224.00" arrivalLane="E2_0" arrivalPos="300.00" arrivalSpeed="11.47" duration="156.00" routeLength="794.90" waitingTime="64.00" waitingCount="5" stopTime="0.00" timeLoss="85.89" rerouteNo="0" devices="tripinfo_C_13" vType="typeC" speedFactor="0.83" vaporized=""/>
    <tripinfo id="C_14" depart="74.00" departLane="E1_0" departPos="5.10" departSpeed="3.84" departDelay="0.00" arrival="225.00" arrivalLane="E2_0" arrivalPos="300.00" arrivalSpeed="12.74" duration="151.00" routeLength="794.90" waitingTime="63.00" waitingCount="5" stopTime="0.00" timeLoss="88.38" rerouteNo="0" devices="tripinfo_C_14" vType="typeC" speedFactor="0.92" vaporized=""/>
    <tripinfo id="C_15" depart="90.00" departLane="E1_0" departPos="5.10" departSpeed="2.50" departDelay="0.00" arrival="227.00" arrivalLane="E2_0" arrivalPos="300.00" arrivalSpeed="14.47" duration="137.00" routeLength="794.90" waitingTime="52.00" waitingCount="5" stopTime="0.00" timeLoss="85.79" rerouteNo="0" devices="tripinfo_C_15" vType="typeC" speedFactor="1.13" vaporized=""/>
    <tripinfo id="C_16" depart="100.00" departLane="E1_0" departPos="5.10" departSpeed="0.49" departDelay="0.00" arrival="228.00" arrivalLane="E2_0" arrivalPos="300.00" arrivalSpeed="14.47" duration="128.00" routeLength="794.90" waitingTime="46.00" waitingCount="4" stopTime="0.00" timeLoss="79.28" rerouteNo="0" devices="tripinfo_C_16" vType="typeC" speedFactor="1.18" vaporized=""/>
    <tripinfo id="C_17" depart="103.00" departLane="E1_0" departPos="5.10" departSpeed="4.31" departDelay="0.00" arrival="230.00" arrivalLane="E2_0" arrivalPos="300.00" arrivalSpeed="15.97" duration="127.00" routeLength="794.90" waitingTime="46.00" waitingCount="4" stopTime="0.00" timeLoss="76.74" rerouteNo="0" devices="tripinfo_C_17" vType="typeC" speedFactor="1.15" vaporized=""/>
    <tripinfo id="C_18" depart="105.00" departLane="E1_0" departPos="5.10" departSpeed="1.81" departDelay="1.00" arrival="231.00" arrivalLane="E2_0" arrivalPos="300.00" arrivalSpeed="13.96" duration="126.00" routeLength="794.90" waitingTime="43.00" waitingCount="4" stopTime="0.00" timeLoss="68.99" rerouteNo="0" devices="tripinfo_C_18" vType="typeC" speedFactor="1.01" vaporized=""/>
    <tripinfo id="C_19" depart="122.00" departLane="E1_0" departPos="5.10" departSpeed="13.66" departDelay="0.00" arrival="233.00" arrivalLane="E2_0" arrivalPos="300.00" arrivalSpeed="14.16" duration="111.00" routeLength="794.90" waitingTime="35.00" waitingCount="3" stopTime="0.00" timeLoss="54.31" rerouteNo="0" devices="tripinfo_C_19" vType="typeC" speedFactor="1.02" vaporized=""/>
    <tripinfo id="B_23" depart="177.00" departLane="E1_1" departPos="5.10" departSpeed="6.89" departDelay="0.00" arrival="245.00" arrivalLane="E2_0" arrivalPos="300.00" arrivalSpeed="11.87" duration="68.00" routeLength="794.90" waitingTime="0.00" waitingCount="0" stopTime="0.00" timeLoss="0.50" rerouteNo="0" devices="tripinfo_B_23" vType="typeB" speedFactor="0.85" vaporized=""/>
    <tripinfo id="B_24" depart="178.00" departLane="E1_1" departPos="5.10" departSpeed="2.73" departDelay="0.00" arrival="246.00" arrivalLane="E2_0" arrivalPos="300.00" arrivalSpeed="13.38" duration="68.00" routeLength="794.90" waitingTime="0.00" waitingCount="0" stopTime="0.00" timeLoss="19.00" rerouteNo="0" devices="tripinfo_B_24" vType="typeB" speedFactor="1.17" vaporized=""/>
    <tripinfo id="B_25" depart="182.00" departLane="E1_1" departPos="5.10" departSpeed="8.94" departDelay="0.00" arrival="248.00" arrivalLane="E2_0" arrivalPos="300.00" arrivalSpeed="13.93" duration="66.00" routeLength="794.90" waitingTime="0.00" waitingCount="0" stopTime="0.00" timeLoss="8.45" rerouteNo="0" devices="tripinfo_B_25" vType="typeB" speedFactor="1.00" vaporized=""/>
    <tripinfo id="B_26" depart="187.00" departLane="E1_1" departPos="5.10" departSpeed="0.35" departDelay="0.00" arrival="255.00" arrivalLane="E2_0" arrivalPos="300.00" arrivalSpeed="12.49" duration="68.00" routeLength="794.90" waitingTime="0.00" waitingCount="0" stopTime="0.00" timeLoss="3.45" rerouteNo="0" devices="tripinfo_B_26" vType="typeB" speedFactor="0.90" vaporized=""/>
    <tripinfo id="B_27" depart="193.00" departLane="E1_1" departPos="5.10" departSpeed="2.69" departDelay="0.00" arrival="256.00" arrivalLane="E2_0" arrivalPos="300.00" arrivalSpeed="13.99" duration="63.00" routeLength="794.90" waitingTime="0.00" waitingCount="0" stopTime="0.00" timeLoss="9.80" rerouteNo="0" devices="tripinfo_B_27" vType="typeB" speedFactor="1.08" vaporized=""/>
    <tripinfo id="B_28" depart="195.00" departLane="E1_1" departPos="5.10" departSpeed="4.59" departDelay="1.00" arrival="258.00" arrivalLane="E2_0" arrivalPos="300.00" arrivalSpeed="15.49" duration="63.00" routeLength="794.90" waitingTime="0.00" waitingCount="0" stopTime="0.00" timeLoss="11.04" rerouteNo="0" devices="tripinfo_B_28" vType="typeB" speedFactor="1.12" vaporized=""/>
    <tripinfo id="B_29" depart="197.00" departLane="E1_1" departPos="5.10" departSpeed="1.21" departDelay="1.00" arrival="259.00" arrivalLane="E2_0" arrivalPos="300.00" arrivalSpeed="14.11" duration="62.00" routeLength="794.90" waitingTime="0.00" waitingCount="0" stopTime="0.00" timeLoss="5.39" rerouteNo="0" devices="tripinfo_B_29" vType="typeB" speedFactor="1.02" vaporized=""/>
    <tripinfo id="B_30" depart="200.00" departLane="E1_1" departPos="5.10" departSpeed="2.84" departDelay="1.00" arrival="261.00" arrivalLane="E2_0" arrivalPos="300.00" arrivalSpeed="13.71" duration="61.00" routeLength="794.90" waitingTime="0.00" waitingCount="0" stopTime="0.00" timeLoss="2.60" rerouteNo="0" devices="tripinfo_B_30" vType="typeB" speedFactor="0.99" vaporized=""/>
</tripinfos>
