<?xml version="1.0" encoding="UTF-8"?>

<!-- generated on 2022-01-17 00:59:32 by Eclipse SUMO GUI Version v1_11_0+0661-437598ee861
<configuration xmlns:xsi="http://www.w3.org/2001/XMLSchema-instance" xsi:noNamespaceSchemaLocation="http://sumo.dlr.de/xsd/sumoConfiguration.xsd">

    <input>
        <net-file value="sumo_data/laneMerging2.net.xml"/>
        <route-files value="sumo_data/laneMerging.rou.xml"/>
        <additional-files value="sumo_data/laneMerging.add.xml"/>
    </input>

    <output>
        <tripinfo-output value="tripinfo_dp.xml"/>
    </output>

    <report>
        <no-warnings value="true"/>
        <duration-log.disable value="true"/>
        <no-step-log value="true"/>
    </report>

    <traci_server>
        <remote-port value="54429"/>
    </traci_server>

    <gui_only>
        <gui-settings-file value="sumo_data/laneMerging.view.xml"/>
        <start value="true"/>
    </gui_only>

</configuration>
-->

<tripinfos xmlns:xsi="http://www.w3.org/2001/XMLSchema-instance" xsi:noNamespaceSchemaLocation="http://sumo.dlr.de/xsd/tripinfo_file.xsd">
</tripinfos>
