<?xml version="1.0" encoding="UTF-8"?>

<!-- generated on 2021-07-13 14:44:06 by Eclipse SUMO GUI Version 1.9.2
<configuration xmlns:xsi="http://www.w3.org/2001/XMLSchema-instance" xsi:noNamespaceSchemaLocation="http://sumo.dlr.de/xsd/sumoConfiguration.xsd">

    <input>
        <net-file value="sumo_data/laneMerging2.net.xml"/>
        <route-files value="sumo_data/laneMerging.rou.xml"/>
        <additional-files value="sumo_data/laneMerging.add.xml"/>
    </input>

    <output>
        <tripinfo-output value="tripinfo_dp.xml"/>
    </output>

    <report>
        <no-warnings value="true"/>
        <duration-log.disable value="true"/>
        <no-step-log value="true"/>
    </report>

    <traci_server>
        <remote-port value="56982"/>
    </traci_server>

    <gui_only>
        <gui-settings-file value="sumo_data/laneMerging.view.xml"/>
        <start value="true"/>
    </gui_only>

</configuration>
-->

<tripinfos xmlns:xsi="http://www.w3.org/2001/XMLSchema-instance" xsi:noNamespaceSchemaLocation="http://sumo.dlr.de/xsd/tripinfo_file.xsd">
    <tripinfo id="A_1" depart="1.00" departLane="E6_0" departPos="2.10" departSpeed="13.12" departDelay="0.00" arrival="412.00" arrivalLane="E9_0" arrivalPos="25.59" arrivalSpeed="13.46" duration="411.00" routeLength="6035.74" waitingTime="0.00" waitingCount="0" stopTime="0.00" timeLoss="0.74" rerouteNo="0" devices="tripinfo_A_1" vType="typeA" speedFactor="1.06" vaporized=""/>
    <tripinfo id="A_2" depart="2.00" departLane="E6_0" departPos="2.10" departSpeed="0.64" departDelay="0.00" arrival="437.00" arrivalLane="E9_0" arrivalPos="25.59" arrivalSpeed="12.97" duration="435.00" routeLength="6035.74" waitingTime="0.00" waitingCount="0" stopTime="0.00" timeLoss="4.49" rerouteNo="0" devices="tripinfo_A_2" vType="typeA" speedFactor="1.01" vaporized=""/>
    <tripinfo id="A_3" depart="4.00" departLane="E6_0" departPos="2.10" departSpeed="0.62" departDelay="1.00" arrival="439.00" arrivalLane="E9_0" arrivalPos="25.59" arrivalSpeed="13.17" duration="435.00" routeLength="6035.74" waitingTime="0.00" waitingCount="0" stopTime="0.00" timeLoss="12.10" rerouteNo="0" devices="tripinfo_A_3" vType="typeA" speedFactor="1.03" vaporized=""/>
    <tripinfo id="C_1" depart="1.00" departLane="E8_0" departPos="2.10" departSpeed="9.29" departDelay="0.00" arrival="467.00" arrivalLane="E10_0" arrivalPos="26.86" arrivalSpeed="12.09" duration="466.00" routeLength="6035.84" waitingTime="0.00" waitingCount="0" stopTime="0.00" timeLoss="1.30" rerouteNo="0" devices="tripinfo_C_1" vType="typeC" speedFactor="0.94" vaporized=""/>
    <tripinfo id="C_2" depart="2.00" departLane="E8_0" departPos="2.10" departSpeed="7.39" departDelay="0.00" arrival="468.00" arrivalLane="E10_0" arrivalPos="26.86" arrivalSpeed="11.76" duration="466.00" routeLength="6035.84" waitingTime="0.00" waitingCount="0" stopTime="0.00" timeLoss="63.68" rerouteNo="0" devices="tripinfo_C_2" vType="typeC" speedFactor="1.08" vaporized=""/>
    <tripinfo id="C_3" depart="5.00" departLane="E8_0" departPos="2.10" departSpeed="7.92" departDelay="0.00" arrival="470.00" arrivalLane="E10_0" arrivalPos="26.86" arrivalSpeed="12.96" duration="465.00" routeLength="6035.84" waitingTime="0.00" waitingCount="0" stopTime="0.00" timeLoss="48.55" rerouteNo="0" devices="tripinfo_C_3" vType="typeC" speedFactor="1.05" vaporized=""/>
    <tripinfo id="C_4" depart="8.00" departLane="E8_0" departPos="2.10" departSpeed="8.77" departDelay="0.00" arrival="475.00" arrivalLane="E10_0" arrivalPos="26.86" arrivalSpeed="12.09" duration="467.00" routeLength="6035.84" waitingTime="0.00" waitingCount="0" stopTime="0.00" timeLoss="2.03" rerouteNo="0" devices="tripinfo_C_4" vType="typeC" speedFactor="0.94" vaporized=""/>
    <tripinfo id="B_1" depart="8.00" departLane="E7_0" departPos="2.10" departSpeed="0.07" departDelay="0.00" arrival="503.00" arrivalLane="E9_0" arrivalPos="25.59" arrivalSpeed="12.31" duration="495.00" routeLength="6036.58" waitingTime="0.00" waitingCount="0" stopTime="0.00" timeLoss="3.56" rerouteNo="1" devices="tripinfo_B_1" vType="typeB" speedFactor="0.89" vaporized=""/>
    <tripinfo id="C_5" depart="10.00" departLane="E8_0" departPos="2.10" departSpeed="5.55" departDelay="0.00" arrival="520.00" arrivalLane="E10_0" arrivalPos="26.86" arrivalSpeed="11.43" duration="510.00" routeLength="6035.84" waitingTime="0.00" waitingCount="0" stopTime="0.00" timeLoss="2.12" rerouteNo="0" devices="tripinfo_C_5" vType="typeC" speedFactor="0.86" vaporized=""/>
    <tripinfo id="C_6" depart="11.00" departLane="E8_0" departPos="2.10" departSpeed="3.85" departDelay="0.00" arrival="522.00" arrivalLane="E10_0" arrivalPos="26.86" arrivalSpeed="12.93" duration="511.00" routeLength="6035.84" waitingTime="0.00" waitingCount="0" stopTime="0.00" timeLoss="94.43" rerouteNo="0" devices="tripinfo_C_6" vType="typeC" speedFactor="1.05" vaporized=""/>
    <tripinfo id="B_2" depart="11.00" departLane="E7_0" departPos="2.10" departSpeed="4.62" departDelay="0.00" arrival="529.00" arrivalLane="E10_0" arrivalPos="26.86" arrivalSpeed="10.50" duration="518.00" routeLength="6037.61" waitingTime="20.00" waitingCount="1" stopTime="0.00" timeLoss="94.33" rerouteNo="1" devices="tripinfo_B_2" vType="typeB" speedFactor="1.03" vaporized=""/>
    <tripinfo id="A_4" depart="6.00" departLane="E6_0" departPos="2.10" departSpeed="2.44" departDelay="2.00" arrival="533.00" arrivalLane="E9_0" arrivalPos="25.59" arrivalSpeed="11.20" duration="527.00" routeLength="6035.74" waitingTime="0.00" waitingCount="0" stopTime="0.00" timeLoss="3.39" rerouteNo="0" devices="tripinfo_A_4" vType="typeA" speedFactor="0.83" vaporized=""/>
    <tripinfo id="A_5" depart="11.00" departLane="E6_0" departPos="2.10" departSpeed="6.85" departDelay="0.00" arrival="535.00" arrivalLane="E9_0" arrivalPos="25.59" arrivalSpeed="12.70" duration="524.00" routeLength="6035.74" waitingTime="0.00" waitingCount="0" stopTime="0.00" timeLoss="124.71" rerouteNo="0" devices="tripinfo_A_5" vType="typeA" speedFactor="1.09" vaporized=""/>
    <tripinfo id="C_7" depart="15.00" departLane="E8_0" departPos="2.10" departSpeed="4.14" departDelay="0.00" arrival="537.00" arrivalLane="E10_0" arrivalPos="26.86" arrivalSpeed="10.50" duration="522.00" routeLength="6035.84" waitingTime="10.00" waitingCount="1" stopTime="0.00" timeLoss="52.41" rerouteNo="0" devices="tripinfo_C_7" vType="typeC" speedFactor="0.93" vaporized=""/>
    <tripinfo id="C_8" depart="21.00" departLane="E8_0" departPos="2.10" departSpeed="13.18" departDelay="0.00" arrival="539.00" arrivalLane="E10_0" arrivalPos="26.86" arrivalSpeed="12.00" duration="518.00" routeLength="6035.84" waitingTime="10.00" waitingCount="1" stopTime="0.00" timeLoss="86.53" rerouteNo="0" devices="tripinfo_C_8" vType="typeC" speedFactor="1.01" vaporized=""/>
    <tripinfo id="B_3" depart="12.00" departLane="E7_0" departPos="2.10" departSpeed="0.94" departDelay="0.00" arrival="543.00" arrivalLane="E9_0" arrivalPos="25.59" arrivalSpeed="10.50" duration="531.00" routeLength="6036.58" waitingTime="31.00" waitingCount="2" stopTime="0.00" timeLoss="143.82" rerouteNo="1" devices="tripinfo_B_3" vType="typeB" speedFactor="1.12" vaporized=""/>
    <tripinfo id="B_4" depart="17.00" departLane="E7_0" departPos="2.10" departSpeed="0.60" departDelay="0.00" arrival="545.00" arrivalLane="E10_0" arrivalPos="26.86" arrivalSpeed="12.00" duration="528.00" routeLength="6037.61" waitingTime="31.00" waitingCount="2" stopTime="0.00" timeLoss="65.54" rerouteNo="1" devices="tripinfo_B_4" vType="typeB" speedFactor="0.94" vaporized=""/>
    <tripinfo id="A_6" depart="15.00" departLane="E6_0" departPos="2.10" departSpeed="12.05" departDelay="0.00" arrival="551.00" arrivalLane="E9_0" arrivalPos="25.59" arrivalSpeed="10.50" duration="536.00" routeLength="6035.74" waitingTime="11.00" waitingCount="1" stopTime="0.00" timeLoss="97.09" rerouteNo="0" devices="tripinfo_A_6" vType="typeA" speedFactor="0.99" vaporized=""/>
    <tripinfo id="C_9" depart="22.00" departLane="E8_0" departPos="2.10" departSpeed="11.16" departDelay="0.00" arrival="552.00" arrivalLane="E10_0" arrivalPos="26.86" arrivalSpeed="10.50" duration="530.00" routeLength="6035.84" waitingTime="19.00" waitingCount="2" stopTime="0.00" timeLoss="83.62" rerouteNo="0" devices="tripinfo_C_9" vType="typeC" speedFactor="0.98" vaporized=""/>
    <tripinfo id="A_7" depart="16.00" departLane="E6_0" departPos="2.10" departSpeed="8.34" departDelay="0.00" arrival="553.00" arrivalLane="E9_0" arrivalPos="25.59" arrivalSpeed="12.00" duration="537.00" routeLength="6035.74" waitingTime="11.00" waitingCount="1" stopTime="0.00" timeLoss="41.11" rerouteNo="0" devices="tripinfo_A_7" vType="typeA" speedFactor="0.88" vaporized=""/>
    <tripinfo id="C_10" depart="23.00" departLane="E8_0" departPos="2.10" departSpeed="6.60" departDelay="0.00" arrival="554.00" arrivalLane="E10_0" arrivalPos="26.86" arrivalSpeed="11.56" duration="531.00" routeLength="6035.84" waitingTime="19.00" waitingCount="2" stopTime="0.00" timeLoss="31.69" rerouteNo="0" devices="tripinfo_C_10" vType="typeC" speedFactor="0.87" vaporized=""/>
    <tripinfo id="C_11" depart="24.00" departLane="E8_0" departPos="2.10" departSpeed="3.02" departDelay="0.00" arrival="556.00" arrivalLane="E10_0" arrivalPos="26.86" arrivalSpeed="11.92" duration="532.00" routeLength="6035.84" waitingTime="19.00" waitingCount="2" stopTime="0.00" timeLoss="56.70" rerouteNo="0" devices="tripinfo_C_11" vType="typeC" speedFactor="0.92" vaporized=""/>
    <tripinfo id="C_12" depart="25.00" departLane="E8_0" departPos="2.10" departSpeed="0.43" departDelay="0.00" arrival="557.00" arrivalLane="E10_0" arrivalPos="26.86" arrivalSpeed="10.68" duration="532.00" routeLength="6035.84" waitingTime="19.00" waitingCount="2" stopTime="0.00" timeLoss="73.32" rerouteNo="0" devices="tripinfo_C_12" vType="typeC" speedFactor="0.95" vaporized=""/>
    <tripinfo id="C_13" depart="27.00" departLane="E8_0" departPos="2.10" departSpeed="2.14" departDelay="0.00" arrival="559.00" arrivalLane="E10_0" arrivalPos="26.86" arrivalSpeed="11.81" duration="532.00" routeLength="6035.84" waitingTime="19.00" waitingCount="2" stopTime="0.00" timeLoss="147.23" rerouteNo="0" devices="tripinfo_C_13" vType="typeC" speedFactor="1.13" vaporized=""/>
    <tripinfo id="B_5" depart="19.00" departLane="E7_0" departPos="2.10" departSpeed="2.41" departDelay="0.00" arrival="560.00" arrivalLane="E9_0" arrivalPos="25.59" arrivalSpeed="10.50" duration="541.00" routeLength="6036.58" waitingTime="42.00" waitingCount="3" stopTime="0.00" timeLoss="76.62" rerouteNo="1" devices="tripinfo_B_5" vType="typeB" speedFactor="0.94" vaporized=""/>
    <tripinfo id="C_14" depart="29.00" departLane="E8_0" departPos="2.10" departSpeed="2.06" departDelay="1.00" arrival="561.00" arrivalLane="E10_0" arrivalPos="26.86" arrivalSpeed="10.53" duration="532.00" routeLength="6035.84" waitingTime="19.00" waitingCount="2" stopTime="0.00" timeLoss="64.66" rerouteNo="0" devices="tripinfo_C_14" vType="typeC" speedFactor="0.93" vaporized=""/>
    <tripinfo id="C_15" depart="31.00" departLane="E8_0" departPos="2.10" departSpeed="1.81" departDelay="2.00" arrival="563.00" arrivalLane="E10_0" arrivalPos="26.86" arrivalSpeed="11.13" duration="532.00" routeLength="6035.84" waitingTime="19.00" waitingCount="2" stopTime="0.00" timeLoss="98.86" rerouteNo="0" devices="tripinfo_C_15" vType="typeC" speedFactor="1.01" vaporized=""/>
    <tripinfo id="C_16" depart="33.00" departLane="E8_0" departPos="2.10" departSpeed="3.63" departDelay="2.00" arrival="565.00" arrivalLane="E10_0" arrivalPos="26.86" arrivalSpeed="11.98" duration="532.00" routeLength="6035.84" waitingTime="19.00" waitingCount="2" stopTime="0.00" timeLoss="160.29" rerouteNo="0" devices="tripinfo_C_16" vType="typeC" speedFactor="1.17" vaporized=""/>
    <tripinfo id="A_8" depart="20.00" departLane="E6_0" departPos="2.10" departSpeed="4.94" departDelay="0.00" arrival="568.00" arrivalLane="E9_0" arrivalPos="25.59" arrivalSpeed="10.50" duration="548.00" routeLength="6035.74" waitingTime="22.00" waitingCount="2" stopTime="0.00" timeLoss="172.40" rerouteNo="0" devices="tripinfo_A_8" vType="typeA" speedFactor="1.16" vaporized=""/>
    <tripinfo id="A_9" depart="21.00" departLane="E6_0" departPos="2.10" departSpeed="5.09" departDelay="0.00" arrival="570.00" arrivalLane="E9_0" arrivalPos="25.59" arrivalSpeed="12.00" duration="549.00" routeLength="6035.74" waitingTime="22.00" waitingCount="2" stopTime="0.00" timeLoss="121.14" rerouteNo="0" devices="tripinfo_A_9" vType="typeA" speedFactor="1.02" vaporized=""/>
    <tripinfo id="B_6" depart="23.00" departLane="E7_0" departPos="2.10" departSpeed="4.55" departDelay="0.00" arrival="573.00" arrivalLane="E10_0" arrivalPos="26.86" arrivalSpeed="10.50" duration="550.00" routeLength="6037.61" waitingTime="15.00" waitingCount="2" stopTime="0.00" timeLoss="23.38" rerouteNo="1" devices="tripinfo_B_6" vType="typeB" speedFactor="0.83" vaporized=""/>
    <tripinfo id="A_10" depart="23.00" departLane="E6_0" departPos="2.10" departSpeed="6.73" departDelay="0.00" arrival="575.00" arrivalLane="E9_0" arrivalPos="25.59" arrivalSpeed="10.50" duration="552.00" routeLength="6035.74" waitingTime="23.00" waitingCount="3" stopTime="0.00" timeLoss="62.99" rerouteNo="0" devices="tripinfo_A_10" vType="typeA" speedFactor="0.89" vaporized=""/>
    <tripinfo id="A_11" depart="29.00" departLane="E6_0" departPos="2.10" departSpeed="15.66" departDelay="0.00" arrival="577.00" arrivalLane="E9_0" arrivalPos="25.59" arrivalSpeed="12.00" duration="548.00" routeLength="6035.74" waitingTime="23.00" waitingCount="3" stopTime="0.00" timeLoss="178.39" rerouteNo="0" devices="tripinfo_A_11" vType="typeA" speedFactor="1.18" vaporized=""/>
    <tripinfo id="C_17" depart="35.00" departLane="E8_0" departPos="2.10" departSpeed="5.17" departDelay="2.00" arrival="581.00" arrivalLane="E10_0" arrivalPos="26.86" arrivalSpeed="10.50" duration="546.00" routeLength="6035.84" waitingTime="30.00" waitingCount="3" stopTime="0.00" timeLoss="177.05" rerouteNo="0" devices="tripinfo_C_17" vType="typeC" speedFactor="1.18" vaporized=""/>
    <tripinfo id="A_12" depart="32.00" departLane="E6_0" departPos="2.10" departSpeed="13.33" departDelay="0.00" arrival="582.00" arrivalLane="E9_0" arrivalPos="25.59" arrivalSpeed="10.50" duration="550.00" routeLength="6035.74" waitingTime="24.00" waitingCount="4" stopTime="0.00" timeLoss="112.71" rerouteNo="0" devices="tripinfo_A_12" vType="typeA" speedFactor="0.99" vaporized=""/>
    <tripinfo id="C_18" depart="36.00" departLane="E8_0" departPos="2.10" departSpeed="3.51" departDelay="2.00" arrival="583.00" arrivalLane="E10_0" arrivalPos="26.86" arrivalSpeed="12.00" duration="547.00" routeLength="6035.84" waitingTime="30.00" waitingCount="3" stopTime="0.00" timeLoss="151.60" rerouteNo="0" devices="tripinfo_C_18" vType="typeC" speedFactor="1.10" vaporized=""/>
    <tripinfo id="A_13" depart="36.00" departLane="E6_0" departPos="2.10" departSpeed="8.53" departDelay="0.00" arrival="584.00" arrivalLane="E9_0" arrivalPos="25.59" arrivalSpeed="12.00" duration="548.00" routeLength="6035.74" waitingTime="24.00" waitingCount="4" stopTime="0.00" timeLoss="125.23" rerouteNo="0" devices="tripinfo_A_13" vType="typeA" speedFactor="1.03" vaporized=""/>
    <tripinfo id="C_19" depart="38.00" departLane="E8_0" departPos="2.10" departSpeed="4.67" departDelay="3.00" arrival="585.00" arrivalLane="E10_0" arrivalPos="26.86" arrivalSpeed="11.79" duration="547.00" routeLength="6035.84" waitingTime="30.00" waitingCount="3" stopTime="0.00" timeLoss="62.96" rerouteNo="0" devices="tripinfo_C_19" vType="typeC" speedFactor="0.90" vaporized=""/>
    <tripinfo id="A_14" depart="38.00" departLane="E6_0" departPos="2.10" departSpeed="4.67" departDelay="0.00" arrival="589.00" arrivalLane="E9_0" arrivalPos="25.59" arrivalSpeed="10.50" duration="551.00" routeLength="6035.74" waitingTime="25.00" waitingCount="5" stopTime="0.00" timeLoss="152.59" rerouteNo="0" devices="tripinfo_A_14" vType="typeA" speedFactor="1.09" vaporized=""/>
    <tripinfo id="A_15" depart="47.00" departLane="E6_0" departPos="2.10" departSpeed="5.50" departDelay="0.00" arrival="591.00" arrivalLane="E9_0" arrivalPos="25.59" arrivalSpeed="12.00" duration="544.00" routeLength="6035.74" waitingTime="25.00" waitingCount="5" stopTime="0.00" timeLoss="171.33" rerouteNo="0" devices="tripinfo_A_15" vType="typeA" speedFactor="1.17" vaporized=""/>
    <tripinfo id="A_16" depart="50.00" departLane="E6_0" departPos="2.10" departSpeed="8.01" departDelay="0.00" arrival="596.00" arrivalLane="E9_0" arrivalPos="25.59" arrivalSpeed="10.50" duration="546.00" routeLength="6035.74" waitingTime="26.00" waitingCount="6" stopTime="0.00" timeLoss="118.15" rerouteNo="0" devices="tripinfo_A_16" vType="typeA" speedFactor="1.02" vaporized=""/>
    <tripinfo id="A_17" depart="51.00" departLane="E6_0" departPos="2.10" departSpeed="3.15" departDelay="0.00" arrival="598.00" arrivalLane="E9_0" arrivalPos="25.59" arrivalSpeed="12.00" duration="547.00" routeLength="6035.74" waitingTime="26.00" waitingCount="6" stopTime="0.00" timeLoss="149.47" rerouteNo="0" devices="tripinfo_A_17" vType="typeA" speedFactor="1.10" vaporized=""/>
    <tripinfo id="B_7" depart="29.00" departLane="E7_0" departPos="2.10" departSpeed="0.48" departDelay="0.00" arrival="605.00" arrivalLane="E9_0" arrivalPos="25.59" arrivalSpeed="10.50" duration="576.00" routeLength="6036.58" waitingTime="44.00" waitingCount="3" stopTime="0.00" timeLoss="199.40" rerouteNo="1" devices="tripinfo_B_7" vType="typeB" speedFactor="1.15" vaporized=""/>
    <tripinfo id="B_8" depart="32.00" departLane="E7_0" departPos="2.10" departSpeed="3.74" departDelay="0.00" arrival="607.00" arrivalLane="E10_0" arrivalPos="26.86" arrivalSpeed="12.00" duration="575.00" routeLength="6037.61" waitingTime="44.00" waitingCount="3" stopTime="0.00" timeLoss="148.05" rerouteNo="1" devices="tripinfo_B_8" vType="typeB" speedFactor="1.02" vaporized=""/>
    <tripinfo id="B_9" depart="33.00" departLane="E7_0" departPos="2.10" departSpeed="2.27" departDelay="0.00" arrival="611.00" arrivalLane="E9_0" arrivalPos="25.59" arrivalSpeed="11.25" duration="578.00" routeLength="6036.58" waitingTime="44.00" waitingCount="3" stopTime="0.00" timeLoss="130.89" rerouteNo="1" devices="tripinfo_B_9" vType="typeB" speedFactor="0.97" vaporized=""/>
    <tripinfo id="B_10" depart="41.00" departLane="E7_0" departPos="2.10" departSpeed="13.84" departDelay="0.00" arrival="612.00" arrivalLane="E9_0" arrivalPos="25.59" arrivalSpeed="11.25" duration="571.00" routeLength="6036.58" waitingTime="44.00" waitingCount="3" stopTime="0.00" timeLoss="154.27" rerouteNo="1" devices="tripinfo_B_10" vType="typeB" speedFactor="1.04" vaporized=""/>
    <tripinfo id="C_20" depart="39.00" departLane="E8_0" departPos="2.10" departSpeed="2.76" departDelay="2.00" arrival="614.00" arrivalLane="E10_0" arrivalPos="26.86" arrivalSpeed="10.50" duration="575.00" routeLength="6035.84" waitingTime="55.00" waitingCount="4" stopTime="0.00" timeLoss="120.28" rerouteNo="0" devices="tripinfo_C_20" vType="typeC" speedFactor="0.96" vaporized=""/>
    <tripinfo id="B_11" depart="45.00" departLane="E7_0" departPos="2.10" departSpeed="6.84" departDelay="0.00" arrival="615.00" arrivalLane="E9_0" arrivalPos="25.59" arrivalSpeed="12.00" duration="570.00" routeLength="6036.58" waitingTime="44.00" waitingCount="3" stopTime="0.00" timeLoss="86.60" rerouteNo="1" devices="tripinfo_B_11" vType="typeB" speedFactor="0.90" vaporized=""/>
    <tripinfo id="C_21" depart="41.00" departLane="E8_0" departPos="2.10" departSpeed="2.43" departDelay="1.00" arrival="616.00" arrivalLane="E10_0" arrivalPos="26.86" arrivalSpeed="12.00" duration="575.00" routeLength="6035.84" waitingTime="55.00" waitingCount="4" stopTime="0.00" timeLoss="155.01" rerouteNo="0" devices="tripinfo_C_21" vType="typeC" speedFactor="1.04" vaporized=""/>
    <tripinfo id="C_22" depart="43.00" departLane="E8_0" departPos="2.10" departSpeed="2.29" departDelay="2.00" arrival="617.00" arrivalLane="E10_0" arrivalPos="26.86" arrivalSpeed="11.25" duration="574.00" routeLength="6035.84" waitingTime="55.00" waitingCount="4" stopTime="0.00" timeLoss="173.94" rerouteNo="0" devices="tripinfo_C_22" vType="typeC" speedFactor="1.09" vaporized=""/>
    <tripinfo id="C_23" depart="45.00" departLane="E8_0" departPos="2.10" departSpeed="3.86" departDelay="1.00" arrival="619.00" arrivalLane="E10_0" arrivalPos="26.86" arrivalSpeed="11.07" duration="574.00" routeLength="6035.84" waitingTime="55.00" waitingCount="4" stopTime="0.00" timeLoss="137.57" rerouteNo="0" devices="tripinfo_C_23" vType="typeC" speedFactor="1.00" vaporized=""/>
    <tripinfo id="C_24" depart="46.00" departLane="E8_0" departPos="2.10" departSpeed="0.82" departDelay="1.00" arrival="622.00" arrivalLane="E10_0" arrivalPos="26.86" arrivalSpeed="11.59" duration="576.00" routeLength="6035.84" waitingTime="54.00" waitingCount="4" stopTime="0.00" timeLoss="78.89" rerouteNo="0" devices="tripinfo_C_24" vType="typeC" speedFactor="0.88" vaporized=""/>
    <tripinfo id="A_18" depart="53.00" departLane="E6_0" departPos="2.10" departSpeed="1.00" departDelay="0.00" arrival="622.00" arrivalLane="E9_0" arrivalPos="25.59" arrivalSpeed="10.50" duration="569.00" routeLength="6035.74" waitingTime="46.00" waitingCount="7" stopTime="0.00" timeLoss="85.03" rerouteNo="0" devices="tripinfo_A_18" vType="typeA" speedFactor="0.90" vaporized=""/>
    <tripinfo id="C_25" depart="48.00" departLane="E8_0" departPos="2.10" departSpeed="1.02" departDelay="2.00" arrival="624.00" arrivalLane="E10_0" arrivalPos="26.86" arrivalSpeed="11.42" duration="576.00" routeLength="6035.84" waitingTime="44.00" waitingCount="3" stopTime="0.00" timeLoss="66.18" rerouteNo="0" devices="tripinfo_C_25" vType="typeC" speedFactor="0.85" vaporized=""/>
    <tripinfo id="A_19" depart="55.00" departLane="E6_0" departPos="2.10" departSpeed="3.00" departDelay="1.00" arrival="624.00" arrivalLane="E9_0" arrivalPos="25.59" arrivalSpeed="12.00" duration="569.00" routeLength="6035.74" waitingTime="46.00" waitingCount="7" stopTime="0.00" timeLoss="143.41" rerouteNo="0" devices="tripinfo_A_19" vType="typeA" speedFactor="1.02" vaporized=""/>
    <tripinfo id="A_20" depart="59.00" departLane="E6_0" departPos="2.10" departSpeed="9.40" departDelay="0.00" arrival="629.00" arrivalLane="E9_0" arrivalPos="25.59" arrivalSpeed="10.50" duration="570.00" routeLength="6035.74" waitingTime="47.00" waitingCount="8" stopTime="0.00" timeLoss="129.22" rerouteNo="0" devices="tripinfo_A_20" vType="typeA" speedFactor="0.99" vaporized=""/>
    <tripinfo id="B_12" depart="46.00" departLane="E7_0" departPos="2.10" departSpeed="2.11" departDelay="0.00" arrival="631.00" arrivalLane="E10_0" arrivalPos="26.86" arrivalSpeed="10.50" duration="585.00" routeLength="6037.61" waitingTime="55.00" waitingCount="4" stopTime="0.00" timeLoss="73.68" rerouteNo="1" devices="tripinfo_B_12" vType="typeB" speedFactor="0.85" vaporized=""/>
    <tripinfo id="A_21" depart="65.00" departLane="E6_0" departPos="2.10" departSpeed="6.14" departDelay="0.00" arrival="631.00" arrivalLane="E9_0" arrivalPos="25.59" arrivalSpeed="12.00" duration="566.00" routeLength="6035.74" waitingTime="47.00" waitingCount="8" stopTime="0.00" timeLoss="147.12" rerouteNo="0" devices="tripinfo_A_21" vType="typeA" speedFactor="1.04" vaporized=""/>
    <tripinfo id="B_13" depart="52.00" departLane="E7_0" departPos="2.10" departSpeed="0.65" departDelay="0.00" arrival="633.00" arrivalLane="E10_0" arrivalPos="26.86" arrivalSpeed="12.00" duration="581.00" routeLength="6037.61" waitingTime="55.00" waitingCount="4" stopTime="0.00" timeLoss="143.92" rerouteNo="1" devices="tripinfo_B_13" vType="typeB" speedFactor="1.00" vaporized=""/>
    <tripinfo id="A_22" depart="67.00" departLane="E6_0" departPos="2.10" departSpeed="9.77" departDelay="0.00" arrival="636.00" arrivalLane="E9_0" arrivalPos="25.59" arrivalSpeed="10.50" duration="569.00" routeLength="6035.74" waitingTime="48.00" waitingCount="9" stopTime="0.00" timeLoss="121.86" rerouteNo="0" devices="tripinfo_A_22" vType="typeA" speedFactor="0.97" vaporized=""/>
    <tripinfo id="A_23" depart="69.00" departLane="E6_0" departPos="2.10" departSpeed="4.55" departDelay="0.00" arrival="638.00" arrivalLane="E9_0" arrivalPos="25.59" arrivalSpeed="12.00" duration="569.00" routeLength="6035.74" waitingTime="48.00" waitingCount="9" stopTime="0.00" timeLoss="112.93" rerouteNo="0" devices="tripinfo_A_23" vType="typeA" speedFactor="0.96" vaporized=""/>
    <tripinfo id="C_26" depart="51.00" departLane="E8_0" departPos="2.10" departSpeed="2.52" departDelay="0.00" arrival="640.00" arrivalLane="E10_0" arrivalPos="26.86" arrivalSpeed="10.50" duration="589.00" routeLength="6035.84" waitingTime="56.00" waitingCount="4" stopTime="0.00" timeLoss="155.14" rerouteNo="0" devices="tripinfo_C_26" vType="typeC" speedFactor="1.00" vaporized=""/>
    <tripinfo id="C_27" depart="54.00" departLane="E8_0" departPos="2.10" departSpeed="8.22" departDelay="0.00" arrival="642.00" arrivalLane="E10_0" arrivalPos="26.86" arrivalSpeed="12.00" duration="588.00" routeLength="6035.84" waitingTime="56.00" waitingCount="4" stopTime="0.00" timeLoss="185.35" rerouteNo="0" devices="tripinfo_C_27" vType="typeC" speedFactor="1.08" vaporized=""/>
    <tripinfo id="C_28" depart="61.00" departLane="E8_0" departPos="2.10" departSpeed="3.94" departDelay="0.00" arrival="644.00" arrivalLane="E10_0" arrivalPos="26.86" arrivalSpeed="12.09" duration="583.00" routeLength="6035.84" waitingTime="56.00" waitingCount="4" stopTime="0.00" timeLoss="118.00" rerouteNo="0" devices="tripinfo_C_28" vType="typeC" speedFactor="0.94" vaporized=""/>
    <tripinfo id="B_14" depart="54.00" departLane="E7_0" departPos="2.10" departSpeed="2.47" departDelay="1.00" arrival="645.00" arrivalLane="E9_0" arrivalPos="25.59" arrivalSpeed="10.50" duration="591.00" routeLength="6036.58" waitingTime="63.00" waitingCount="5" stopTime="0.00" timeLoss="210.46" rerouteNo="1" devices="tripinfo_B_14" vType="typeB" speedFactor="1.14" vaporized=""/>
    <tripinfo id="B_15" depart="56.00" departLane="E7_0" departPos="2.10" departSpeed="2.96" departDelay="2.00" arrival="647.00" arrivalLane="E9_0" arrivalPos="25.59" arrivalSpeed="12.00" duration="591.00" routeLength="6036.58" waitingTime="63.00" waitingCount="5" stopTime="0.00" timeLoss="142.02" rerouteNo="1" devices="tripinfo_B_15" vType="typeB" speedFactor="0.97" vaporized=""/>
    <tripinfo id="B_16" depart="58.00" departLane="E7_0" departPos="2.10" departSpeed="3.91" departDelay="3.00" arrival="651.00" arrivalLane="E10_0" arrivalPos="26.86" arrivalSpeed="11.25" duration="593.00" routeLength="6037.61" waitingTime="63.00" waitingCount="5" stopTime="0.00" timeLoss="204.20" rerouteNo="1" devices="tripinfo_B_16" vType="typeB" speedFactor="1.12" vaporized=""/>
    <tripinfo id="B_17" depart="60.00" departLane="E7_0" departPos="2.10" departSpeed="0.34" departDelay="4.00" arrival="652.00" arrivalLane="E9_0" arrivalPos="25.59" arrivalSpeed="11.25" duration="592.00" routeLength="6036.58" waitingTime="63.00" waitingCount="5" stopTime="0.00" timeLoss="163.92" rerouteNo="1" devices="tripinfo_B_17" vType="typeB" speedFactor="1.02" vaporized=""/>
    <tripinfo id="B_18" depart="66.00" departLane="E7_0" departPos="2.10" departSpeed="6.47" departDelay="0.00" arrival="654.00" arrivalLane="E9_0" arrivalPos="25.59" arrivalSpeed="12.75" duration="588.00" routeLength="6036.58" waitingTime="63.00" waitingCount="5" stopTime="0.00" timeLoss="162.00" rerouteNo="1" devices="tripinfo_B_18" vType="typeB" speedFactor="1.02" vaporized=""/>
    <tripinfo id="C_29" depart="62.00" departLane="E8_0" departPos="2.10" departSpeed="1.28" departDelay="0.00" arrival="658.00" arrivalLane="E10_0" arrivalPos="26.86" arrivalSpeed="10.50" duration="596.00" routeLength="6035.84" waitingTime="66.00" waitingCount="5" stopTime="0.00" timeLoss="102.71" rerouteNo="0" devices="tripinfo_C_29" vType="typeC" speedFactor="0.88" vaporized=""/>
    <tripinfo id="C_30" depart="64.00" departLane="E8_0" departPos="2.10" departSpeed="3.57" departDelay="1.00" arrival="660.00" arrivalLane="E10_0" arrivalPos="26.86" arrivalSpeed="11.84" duration="596.00" routeLength="6035.84" waitingTime="66.00" waitingCount="5" stopTime="0.00" timeLoss="115.42" rerouteNo="0" devices="tripinfo_C_30" vType="typeC" speedFactor="0.91" vaporized=""/>
    <tripinfo id="A_24" depart="74.00" departLane="E6_0" departPos="2.10" departSpeed="9.89" departDelay="0.00" arrival="661.00" arrivalLane="E9_0" arrivalPos="25.59" arrivalSpeed="10.50" duration="587.00" routeLength="6035.74" waitingTime="67.00" waitingCount="10" stopTime="0.00" timeLoss="151.16" rerouteNo="0" devices="tripinfo_A_24" vType="typeA" speedFactor="1.00" vaporized=""/>
    <tripinfo id="C_31" depart="66.00" departLane="E8_0" departPos="2.10" departSpeed="4.75" departDelay="2.00" arrival="662.00" arrivalLane="E10_0" arrivalPos="26.86" arrivalSpeed="11.90" duration="596.00" routeLength="6035.84" waitingTime="66.00" waitingCount="5" stopTime="0.00" timeLoss="119.34" rerouteNo="0" devices="tripinfo_C_31" vType="typeC" speedFactor="0.91" vaporized=""/>
    <tripinfo id="A_25" depart="77.00" departLane="E6_0" departPos="2.10" departSpeed="0.58" departDelay="0.00" arrival="663.00" arrivalLane="E9_0" arrivalPos="25.59" arrivalSpeed="12.00" duration="586.00" routeLength="6035.74" waitingTime="67.00" waitingCount="10" stopTime="0.00" timeLoss="139.65" rerouteNo="0" devices="tripinfo_A_25" vType="typeA" speedFactor="0.98" vaporized=""/>
    <tripinfo id="B_19" depart="67.00" departLane="E7_0" departPos="2.10" departSpeed="3.87" departDelay="0.00" arrival="669.00" arrivalLane="E10_0" arrivalPos="26.86" arrivalSpeed="10.50" duration="602.00" routeLength="6037.61" waitingTime="74.00" waitingCount="6" stopTime="0.00" timeLoss="139.50" rerouteNo="1" devices="tripinfo_B_19" vType="typeB" speedFactor="0.94" vaporized=""/>