<?xml version="1.0" encoding="UTF-8"?>

<!-- generated on 2021-07-06 15:16:07 by Eclipse SUMO GUI Version 1.9.2
<configuration xmlns:xsi="http://www.w3.org/2001/XMLSchema-instance" xsi:noNamespaceSchemaLocation="http://sumo.dlr.de/xsd/sumoConfiguration.xsd">

    <input>
        <net-file value="sumo_data/laneMerging2.net.xml"/>
        <route-files value="sumo_data/laneMerging.rou.xml"/>
        <additional-files value="sumo_data/laneMerging.add.xml"/>
    </input>

    <output>
        <tripinfo-output value="tripinfo_dp.xml"/>
    </output>

    <report>
        <no-warnings value="true"/>
        <duration-log.disable value="true"/>
        <no-step-log value="true"/>
    </report>

    <traci_server>
        <remote-port value="49423"/>
    </traci_server>

    <gui_only>
        <gui-settings-file value="sumo_data/laneMerging.view.xml"/>
        <start value="true"/>
    </gui_only>

</configuration>
-->

<tripinfos xmlns:xsi="http://www.w3.org/2001/XMLSchema-instance" xsi:noNamespaceSchemaLocation="http://sumo.dlr.de/xsd/tripinfo_file.xsd">
    <tripinfo id="B_1" depart="2.00" departLane="E7_0" departPos="2.10" departSpeed="13.12" departDelay="0.00" arrival="413.00" arrivalLane="E10_0" arrivalPos="26.86" arrivalSpeed="14.72" duration="411.00" routeLength="6037.61" waitingTime="0.00" waitingCount="0" stopTime="0.00" timeLoss="0.07" rerouteNo="3" devices="tripinfo_B_1" vType="typeB" speedFactor="1.06" vaporized=""/>
    <tripinfo id="B_2" depart="4.00" departLane="E7_0" departPos="2.10" departSpeed="7.39" departDelay="0.00" arrival="414.00" arrivalLane="E9_0" arrivalPos="25.59" arrivalSpeed="15.04" duration="410.00" routeLength="6036.58" waitingTime="0.00" waitingCount="0" stopTime="0.00" timeLoss="7.91" rerouteNo="1" devices="tripinfo_B_2" vType="typeB" speedFactor="1.08" vaporized=""/>
    <tripinfo id="C_1" depart="4.00" departLane="E8_0" departPos="2.10" departSpeed="8.44" departDelay="0.00" arrival="429.00" arrivalLane="E10_0" arrivalPos="26.86" arrivalSpeed="12.84" duration="425.00" routeLength="6035.84" waitingTime="0.00" waitingCount="0" stopTime="0.00" timeLoss="2.06" rerouteNo="0" devices="tripinfo_C_1" vType="typeC" speedFactor="1.03" vaporized=""/>
    <tripinfo id="C_2" depart="5.00" departLane="E8_0" departPos="2.10" departSpeed="9.04" departDelay="0.00" arrival="430.00" arrivalLane="E10_0" arrivalPos="26.86" arrivalSpeed="11.46" duration="425.00" routeLength="6035.84" waitingTime="0.00" waitingCount="0" stopTime="0.00" timeLoss="8.51" rerouteNo="0" devices="tripinfo_C_2" vType="typeC" speedFactor="1.05" vaporized=""/>
    <tripinfo id="A_1" depart="3.00" departLane="E6_0" departPos="2.10" departSpeed="9.29" departDelay="0.00" arrival="468.00" arrivalLane="E9_0" arrivalPos="25.59" arrivalSpeed="12.26" duration="465.00" routeLength="6035.74" waitingTime="0.00" waitingCount="0" stopTime="0.00" timeLoss="0.89" rerouteNo="0" devices="tripinfo_A_1" vType="typeA" speedFactor="0.94" vaporized=""/>
    <tripinfo id="A_2" depart="4.00" departLane="E6_0" departPos="2.10" departSpeed="0.64" departDelay="0.00" arrival="469.00" arrivalLane="E9_0" arrivalPos="25.59" arrivalSpeed="12.26" duration="465.00" routeLength="6035.74" waitingTime="0.00" waitingCount="0" stopTime="0.00" timeLoss="34.59" rerouteNo="0" devices="tripinfo_A_2" vType="typeA" speedFactor="1.01" vaporized=""/>
    <tripinfo id="A_3" depart="6.00" departLane="E6_0" departPos="2.10" departSpeed="2.46" departDelay="0.00" arrival="501.00" arrivalLane="E9_0" arrivalPos="25.59" arrivalSpeed="11.74" duration="495.00" routeLength="6035.74" waitingTime="0.00" waitingCount="0" stopTime="0.00" timeLoss="3.67" rerouteNo="0" devices="tripinfo_A_3" vType="typeA" speedFactor="0.89" vaporized=""/>
    <tripinfo id="A_4" depart="12.00" departLane="E6_0" departPos="2.10" departSpeed="0.09" departDelay="0.00" arrival="503.00" arrivalLane="E9_0" arrivalPos="25.59" arrivalSpeed="13.24" duration="491.00" routeLength="6035.74" waitingTime="0.00" waitingCount="0" stopTime="0.00" timeLoss="91.53" rerouteNo="0" devices="tripinfo_A_4" vType="typeA" speedFactor="1.09" vaporized=""/>
    <tripinfo id="C_3" depart="9.00" departLane="E8_0" departPos="2.10" departSpeed="8.87" departDelay="0.00" arrival="519.00" arrivalLane="E10_0" arrivalPos="26.86" arrivalSpeed="11.43" duration="510.00" routeLength="6035.84" waitingTime="0.00" waitingCount="0" stopTime="0.00" timeLoss="1.38" rerouteNo="0" devices="tripinfo_C_3" vType="typeC" speedFactor="0.86" vaporized=""/>
    <tripinfo id="C_4" depart="14.00" departLane="E8_0" departPos="2.10" departSpeed="9.59" departDelay="0.00" arrival="520.00" arrivalLane="E10_0" arrivalPos="26.86" arrivalSpeed="11.43" duration="506.00" routeLength="6035.84" waitingTime="0.00" waitingCount="0" stopTime="0.00" timeLoss="81.98" rerouteNo="0" devices="tripinfo_C_4" vType="typeC" speedFactor="1.03" vaporized=""/>
    <tripinfo id="B_3" depart="5.00" departLane="E7_0" departPos="2.10" departSpeed="0.50" departDelay="0.00" arrival="532.00" arrivalLane="E9_0" arrivalPos="25.59" arrivalSpeed="11.54" duration="527.00" routeLength="6036.58" waitingTime="0.00" waitingCount="0" stopTime="0.00" timeLoss="3.06" rerouteNo="1" devices="tripinfo_B_3" vType="typeB" speedFactor="0.83" vaporized=""/>
    <tripinfo id="B_4" depart="9.00" departLane="E7_0" departPos="2.10" departSpeed="7.10" departDelay="0.00" arrival="533.00" arrivalLane="E10_0" arrivalPos="26.86" arrivalSpeed="13.03" duration="524.00" routeLength="6037.61" waitingTime="0.00" waitingCount="0" stopTime="0.00" timeLoss="59.69" rerouteNo="1" devices="tripinfo_B_4" vType="typeB" speedFactor="0.94" vaporized=""/>
    <tripinfo id="A_5" depart="20.00" departLane="E6_0" departPos="2.10" departSpeed="7.80" departDelay="0.00" arrival="539.00" arrivalLane="E9_0" arrivalPos="25.59" arrivalSpeed="10.50" duration="519.00" routeLength="6035.74" waitingTime="31.00" waitingCount="1" stopTime="0.00" timeLoss="80.09" rerouteNo="0" devices="tripinfo_A_5" vType="typeA" speedFactor="0.99" vaporized=""/>
    <tripinfo id="C_5" depart="15.00" departLane="E8_0" departPos="2.10" departSpeed="7.05" departDelay="0.00" arrival="541.00" arrivalLane="E10_0" arrivalPos="26.86" arrivalSpeed="10.50" duration="526.00" routeLength="6035.84" waitingTime="16.00" waitingCount="1" stopTime="0.00" timeLoss="138.41" rerouteNo="0" devices="tripinfo_C_5" vType="typeC" speedFactor="1.12" vaporized=""/>
    <tripinfo id="A_6" depart="21.00" departLane="E6_0" departPos="2.10" departSpeed="8.40" departDelay="0.00" arrival="541.00" arrivalLane="E9_0" arrivalPos="25.59" arrivalSpeed="12.00" duration="520.00" routeLength="6035.74" waitingTime="31.00" waitingCount="1" stopTime="0.00" timeLoss="57.26" rerouteNo="0" devices="tripinfo_A_6" vType="typeA" speedFactor="0.94" vaporized=""/>
    <tripinfo id="C_6" depart="20.00" departLane="E8_0" departPos="2.10" departSpeed="0.74" departDelay="0.00" arrival="543.00" arrivalLane="E10_0" arrivalPos="26.86" arrivalSpeed="11.61" duration="523.00" routeLength="6035.84" waitingTime="16.00" waitingCount="1" stopTime="0.00" timeLoss="26.97" rerouteNo="0" devices="tripinfo_C_6" vType="typeC" speedFactor="0.88" vaporized=""/>
    <tripinfo id="B_5" depart="15.00" departLane="E7_0" departPos="2.10" departSpeed="6.78" departDelay="0.00" arrival="548.00" arrivalLane="E9_0" arrivalPos="25.59" arrivalSpeed="10.50" duration="533.00" routeLength="6036.58" waitingTime="9.00" waitingCount="1" stopTime="0.00" timeLoss="117.72" rerouteNo="1" devices="tripinfo_B_5" vType="typeB" speedFactor="1.05" vaporized=""/>
    <tripinfo id="B_6" depart="20.00" departLane="E7_0" departPos="2.10" departSpeed="3.41" departDelay="0.00" arrival="550.00" arrivalLane="E10_0" arrivalPos="26.86" arrivalSpeed="12.00" duration="530.00" routeLength="6037.61" waitingTime="9.00" waitingCount="1" stopTime="0.00" timeLoss="60.21" rerouteNo="1" devices="tripinfo_B_6" vType="typeB" speedFactor="0.93" vaporized=""/>
    <tripinfo id="B_7" depart="21.00" departLane="E7_0" departPos="2.10" departSpeed="3.11" departDelay="0.00" arrival="551.00" arrivalLane="E10_0" arrivalPos="26.86" arrivalSpeed="12.00" duration="530.00" routeLength="6037.61" waitingTime="9.00" waitingCount="1" stopTime="0.00" timeLoss="65.29" rerouteNo="1" devices="tripinfo_B_7" vType="typeB" speedFactor="0.94" vaporized=""/>
    <tripinfo id="A_7" depart="23.00" departLane="E6_0" departPos="2.10" departSpeed="10.56" departDelay="0.00" arrival="556.00" arrivalLane="E9_0" arrivalPos="25.59" arrivalSpeed="10.50" duration="533.00" routeLength="6035.74" waitingTime="42.00" waitingCount="2" stopTime="0.00" timeLoss="157.40" rerouteNo="0" devices="tripinfo_A_7" vType="typeA" speedFactor="1.16" vaporized=""/>
    <tripinfo id="B_8" depart="26.00" departLane="E7_0" departPos="2.10" departSpeed="4.16" departDelay="0.00" arrival="557.00" arrivalLane="E10_0" arrivalPos="26.86" arrivalSpeed="10.50" duration="531.00" routeLength="6037.61" waitingTime="10.00" waitingCount="2" stopTime="0.00" timeLoss="85.06" rerouteNo="1" devices="tripinfo_B_8" vType="typeB" speedFactor="0.98" vaporized=""/>
    <tripinfo id="A_8" depart="29.00" departLane="E6_0" departPos="2.10" departSpeed="6.60" departDelay="0.00" arrival="558.00" arrivalLane="E9_0" arrivalPos="25.59" arrivalSpeed="12.00" duration="529.00" routeLength="6035.74" waitingTime="20.00" waitingCount="2" stopTime="0.00" timeLoss="29.81" rerouteNo="0" devices="tripinfo_A_8" vType="typeA" speedFactor="0.87" vaporized=""/>
    <tripinfo id="B_9" depart="33.00" departLane="E7_0" departPos="2.10" departSpeed="10.99" departDelay="0.00" arrival="559.00" arrivalLane="E10_0" arrivalPos="26.86" arrivalSpeed="12.00" duration="526.00" routeLength="6037.61" waitingTime="10.00" waitingCount="2" stopTime="0.00" timeLoss="148.89" rerouteNo="1" devices="tripinfo_B_9" vType="typeB" speedFactor="1.15" vaporized=""/>
    <tripinfo id="B_10" depart="34.00" departLane="E7_0" departPos="2.10" departSpeed="4.63" departDelay="0.00" arrival="565.00" arrivalLane="E9_0" arrivalPos="25.59" arrivalSpeed="10.50" duration="531.00" routeLength="6036.58" waitingTime="12.00" waitingCount="3" stopTime="0.00" timeLoss="98.46" rerouteNo="1" devices="tripinfo_B_10" vType="typeB" speedFactor="1.01" vaporized=""/>
    <tripinfo id="B_11" depart="37.00" departLane="E7_0" departPos="2.10" departSpeed="1.73" departDelay="0.00" arrival="567.00" arrivalLane="E10_0" arrivalPos="26.86" arrivalSpeed="12.00" duration="530.00" routeLength="6037.61" waitingTime="12.00" waitingCount="3" stopTime="0.00" timeLoss="92.39" rerouteNo="1" devices="tripinfo_B_11" vType="typeB" speedFactor="0.99" vaporized=""/>
    <tripinfo id="B_12" depart="48.00" departLane="E7_0" departPos="2.10" departSpeed="13.55" departDelay="0.00" arrival="571.00" arrivalLane="E9_0" arrivalPos="25.59" arrivalSpeed="11.25" duration="523.00" routeLength="6036.58" waitingTime="12.00" waitingCount="3" stopTime="0.00" timeLoss="105.96" rerouteNo="1" devices="tripinfo_B_12" vType="typeB" speedFactor="1.04" vaporized=""/>
    <tripinfo id="B_13" depart="49.00" departLane="E7_0" departPos="2.10" departSpeed="13.92" departDelay="0.00" arrival="572.00" arrivalLane="E9_0" arrivalPos="25.59" arrivalSpeed="11.25" duration="523.00" routeLength="6036.58" waitingTime="12.00" waitingCount="3" stopTime="0.00" timeLoss="123.36" rerouteNo="1" devices="tripinfo_B_13" vType="typeB" speedFactor="1.09" vaporized=""/>
    <tripinfo id="C_7" depart="23.00" departLane="E8_0" departPos="2.10" departSpeed="0.65" departDelay="0.00" arrival="574.00" arrivalLane="E10_0" arrivalPos="26.86" arrivalSpeed="10.50" duration="551.00" routeLength="6035.84" waitingTime="43.00" waitingCount="2" stopTime="0.00" timeLoss="123.51" rerouteNo="0" devices="tripinfo_C_7" vType="typeC" speedFactor="1.02" vaporized=""/>
    <tripinfo id="B_14" depart="50.00" departLane="E7_0" departPos="2.10" departSpeed="4.26" departDelay="0.00" arrival="575.00" arrivalLane="E9_0" arrivalPos="25.59" arrivalSpeed="12.00" duration="525.00" routeLength="6036.58" waitingTime="12.00" waitingCount="3" stopTime="0.00" timeLoss="88.56" rerouteNo="1" devices="tripinfo_B_14" vType="typeB" speedFactor="1.00" vaporized=""/>
    <tripinfo id="C_8" depart="25.00" departLane="E8_0" departPos="2.10" departSpeed="2.48" departDelay="0.00" arrival="576.00" arrivalLane="E10_0" arrivalPos="26.86" arrivalSpeed="12.00" duration="551.00" routeLength="6035.84" waitingTime="43.00" waitingCount="2" stopTime="0.00" timeLoss="119.53" rerouteNo="0" devices="tripinfo_C_8" vType="typeC" speedFactor="1.01" vaporized=""/>
    <tripinfo id="C_9" depart="27.00" departLane="E8_0" departPos="2.10" departSpeed="2.97" departDelay="1.00" arrival="578.00" arrivalLane="E10_0" arrivalPos="26.86" arrivalSpeed="11.70" duration="551.00" routeLength="6035.84" waitingTime="43.00" waitingCount="2" stopTime="0.00" timeLoss="61.02" rerouteNo="0" devices="tripinfo_C_9" vType="typeC" speedFactor="0.89" vaporized=""/>
    <tripinfo id="C_10" depart="29.00" departLane="E8_0" departPos="2.10" departSpeed="3.94" departDelay="2.00" arrival="580.00" arrivalLane="E10_0" arrivalPos="26.86" arrivalSpeed="11.18" duration="551.00" routeLength="6035.84" waitingTime="14.00" waitingCount="1" stopTime="0.00" timeLoss="23.24" rerouteNo="0" devices="tripinfo_C_10" vType="typeC" speedFactor="0.83" vaporized=""/>
    <tripinfo id="A_9" depart="30.00" departLane="E6_0" departPos="2.10" departSpeed="3.02" departDelay="0.00" arrival="582.00" arrivalLane="E9_0" arrivalPos="25.59" arrivalSpeed="10.50" duration="552.00" routeLength="6035.74" waitingTime="40.00" waitingCount="3" stopTime="0.00" timeLoss="77.71" rerouteNo="0" devices="tripinfo_A_9" vType="typeA" speedFactor="0.92" vaporized=""/>
    <tripinfo id="A_10" depart="31.00" departLane="E6_0" departPos="2.10" departSpeed="2.52" departDelay="0.00" arrival="584.00" arrivalLane="E9_0" arrivalPos="25.59" arrivalSpeed="12.00" duration="553.00" routeLength="6035.74" waitingTime="40.00" waitingCount="3" stopTime="0.00" timeLoss="168.12" rerouteNo="0" devices="tripinfo_A_10" vType="typeA" speedFactor="1.13" vaporized=""/>
    <tripinfo id="B_15" depart="51.00" departLane="E7_0" departPos="2.10" departSpeed="4.26" departDelay="0.00" arrival="587.00" arrivalLane="E10_0" arrivalPos="26.86" arrivalSpeed="10.50" duration="536.00" routeLength="6037.61" waitingTime="20.00" waitingCount="4" stopTime="0.00" timeLoss="53.16" rerouteNo="1" devices="tripinfo_B_15" vType="typeB" speedFactor="0.90" vaporized=""/>
    <tripinfo id="A_11" depart="33.00" departLane="E6_0" departPos="2.10" departSpeed="0.39" departDelay="1.00" arrival="589.00" arrivalLane="E9_0" arrivalPos="25.59" arrivalSpeed="10.50" duration="556.00" routeLength="6035.74" waitingTime="41.00" waitingCount="4" stopTime="0.00" timeLoss="88.88" rerouteNo="0" devices="tripinfo_A_11" vType="typeA" speedFactor="0.93" vaporized=""/>
    <tripinfo id="A_12" depart="36.00" departLane="E6_0" departPos="2.10" departSpeed="2.11" departDelay="0.00" arrival="591.00" arrivalLane="E9_0" arrivalPos="25.59" arrivalSpeed="12.00" duration="555.00" routeLength="6035.74" waitingTime="41.00" waitingCount="4" stopTime="0.00" timeLoss="183.25" rerouteNo="0" devices="tripinfo_A_12" vType="typeA" speedFactor="1.17" vaporized=""/>
    <tripinfo id="C_11" depart="31.00" departLane="E8_0" departPos="2.10" departSpeed="3.98" departDelay="1.00" arrival="595.00" arrivalLane="E10_0" arrivalPos="26.86" arrivalSpeed="10.50" duration="564.00" routeLength="6035.84" waitingTime="25.00" waitingCount="2" stopTime="0.00" timeLoss="105.30" rerouteNo="0" devices="tripinfo_C_11" vType="typeC" speedFactor="0.95" vaporized=""/>
    <tripinfo id="A_13" depart="38.00" departLane="E6_0" departPos="2.10" departSpeed="4.81" departDelay="0.00" arrival="596.00" arrivalLane="E9_0" arrivalPos="25.59" arrivalSpeed="10.50" duration="558.00" routeLength="6035.74" waitingTime="42.00" waitingCount="5" stopTime="0.00" timeLoss="131.36" rerouteNo="0" devices="tripinfo_A_13" vType="typeA" speedFactor="1.02" vaporized=""/>
    <tripinfo id="C_12" depart="32.00" departLane="E8_0" departPos="2.10" departSpeed="3.62" departDelay="0.00" arrival="597.00" arrivalLane="E10_0" arrivalPos="26.86" arrivalSpeed="12.00" duration="565.00" routeLength="6035.84" waitingTime="25.00" waitingCount="2" stopTime="0.00" timeLoss="195.19" rerouteNo="0" devices="tripinfo_C_12" vType="typeC" speedFactor="1.18" vaporized=""/>
    <tripinfo id="A_14" depart="39.00" departLane="E6_0" departPos="2.10" departSpeed="2.96" departDelay="0.00" arrival="598.00" arrivalLane="E9_0" arrivalPos="25.59" arrivalSpeed="12.00" duration="559.00" routeLength="6035.74" waitingTime="42.00" waitingCount="5" stopTime="0.00" timeLoss="111.40" rerouteNo="0" devices="tripinfo_A_14" vType="typeA" speedFactor="0.97" vaporized=""/>
    <tripinfo id="C_13" depart="43.00" departLane="E8_0" departPos="2.10" departSpeed="2.10" departDelay="0.00" arrival="599.00" arrivalLane="E10_0" arrivalPos="26.86" arrivalSpeed="11.79" duration="556.00" routeLength="6035.84" waitingTime="25.00" waitingCount="2" stopTime="0.00" timeLoss="71.96" rerouteNo="0" devices="tripinfo_C_13" vType="typeC" speedFactor="0.90" vaporized=""/>
    <tripinfo id="C_14" depart="45.00" departLane="E8_0" departPos="2.10" departSpeed="3.45" departDelay="1.00" arrival="600.00" arrivalLane="E10_0" arrivalPos="26.86" arrivalSpeed="11.34" duration="555.00" routeLength="6035.84" waitingTime="25.00" waitingCount="2" stopTime="0.00" timeLoss="132.48" rerouteNo="0" devices="tripinfo_C_14" vType="typeC" speedFactor="1.03" vaporized=""/>
    <tripinfo id="C_15" depart="46.00" departLane="E8_0" departPos="2.10" departSpeed="1.18" departDelay="1.00" arrival="602.00" arrivalLane="E10_0" arrivalPos="26.86" arrivalSpeed="10.74" duration="556.00" routeLength="6035.84" waitingTime="25.00" waitingCount="2" stopTime="0.00" timeLoss="101.24" rerouteNo="0" devices="tripinfo_C_15" vType="typeC" speedFactor="0.96" vaporized=""/>
    <tripinfo id="A_15" depart="42.00" departLane="E6_0" departPos="2.10" departSpeed="4.33" departDelay="0.00" arrival="603.00" arrivalLane="E9_0" arrivalPos="25.59" arrivalSpeed="10.50" duration="561.00" routeLength="6035.74" waitingTime="43.00" waitingCount="6" stopTime="0.00" timeLoss="192.22" rerouteNo="0" devices="tripinfo_A_15" vType="typeA" speedFactor="1.18" vaporized=""/>
    <tripinfo id="C_16" depart="48.00" departLane="E8_0" departPos="2.10" departSpeed="3.37" departDelay="2.00" arrival="604.00" arrivalLane="E10_0" arrivalPos="26.86" arrivalSpeed="11.83" duration="556.00" routeLength="6035.84" waitingTime="25.00" waitingCount="2" stopTime="0.00" timeLoss="157.15" rerouteNo="0" devices="tripinfo_C_16" vType="typeC" speedFactor="1.09" vaporized=""/>
    <tripinfo id="A_16" depart="43.00" departLane="E6_0" departPos="2.10" departSpeed="3.42" departDelay="0.00" arrival="605.00" arrivalLane="E9_0" arrivalPos="25.59" arrivalSpeed="12.00" duration="562.00" routeLength="6035.74" waitingTime="43.00" waitingCount="6" stopTime="0.00" timeLoss="166.81" rerouteNo="0" devices="tripinfo_A_16" vType="typeA" speedFactor="1.10" vaporized=""/>
    <tripinfo id="C_17" depart="57.00" departLane="E8_0" departPos="2.10" departSpeed="2.98" departDelay="0.00" arrival="606.00" arrivalLane="E10_0" arrivalPos="26.86" arrivalSpeed="11.95" duration="549.00" routeLength="6035.84" waitingTime="25.00" waitingCount="2" stopTime="0.00" timeLoss="176.38" rerouteNo="0" devices="tripinfo_C_17" vType="typeC" speedFactor="1.17" vaporized=""/>
    <tripinfo id="C_18" depart="59.00" departLane="E8_0" departPos="2.10" departSpeed="2.31" departDelay="0.00" arrival="608.00" arrivalLane="E10_0" arrivalPos="26.86" arrivalSpeed="11.86" duration="549.00" routeLength="6035.84" waitingTime="25.00" waitingCount="2" stopTime="0.00" timeLoss="151.54" rerouteNo="0" devices="tripinfo_C_18" vType="typeC" speedFactor="1.10" vaporized=""/>
    <tripinfo id="A_17" depart="48.00" departLane="E6_0" departPos="2.10" departSpeed="9.97" departDelay="0.00" arrival="610.00" arrivalLane="E9_0" arrivalPos="25.59" arrivalSpeed="10.50" duration="562.00" routeLength="6035.74" waitingTime="44.00" waitingCount="7" stopTime="0.00" timeLoss="142.80" rerouteNo="0" devices="tripinfo_A_17" vType="typeA" speedFactor="1.04" vaporized=""/>
    <tripinfo id="C_19" depart="61.00" departLane="E8_0" departPos="2.10" departSpeed="0.95" departDelay="0.00" arrival="610.00" arrivalLane="E10_0" arrivalPos="26.86" arrivalSpeed="11.28" duration="549.00" routeLength="6035.84" waitingTime="25.00" waitingCount="2" stopTime="0.00" timeLoss="123.61" rerouteNo="0" devices="tripinfo_C_19" vType="typeC" speedFactor="1.02" vaporized=""/>
    <tripinfo id="A_18" depart="60.00" departLane="E6_0" departPos="2.10" departSpeed="0.39" departDelay="0.00" arrival="612.00" arrivalLane="E9_0" arrivalPos="25.59" arrivalSpeed="12.00" duration="552.00" routeLength="6035.74" waitingTime="44.00" waitingCount="7" stopTime="0.00" timeLoss="117.76" rerouteNo="0" devices="tripinfo_A_18" vType="typeA" speedFactor="1.00" vaporized=""/>
    <tripinfo id="C_20" depart="64.00" departLane="E8_0" departPos="2.10" departSpeed="5.27" departDelay="0.00" arrival="612.00" arrivalLane="E10_0" arrivalPos="26.86" arrivalSpeed="12.00" duration="548.00" routeLength="6035.84" waitingTime="25.00" waitingCount="2" stopTime="0.00" timeLoss="158.86" rerouteNo="0" devices="tripinfo_C_20" vType="typeC" speedFactor="1.12" vaporized=""/>
    <tripinfo id="C_21" depart="66.00" departLane="E8_0" departPos="2.10" departSpeed="7.67" departDelay="0.00" arrival="614.00" arrivalLane="E10_0" arrivalPos="26.86" arrivalSpeed="10.98" duration="548.00" routeLength="6035.84" waitingTime="25.00" waitingCount="2" stopTime="0.00" timeLoss="106.89" rerouteNo="0" devices="tripinfo_C_21" vType="typeC" speedFactor="0.99" vaporized=""/>
    <tripinfo id="C_22" depart="69.00" departLane="E8_0" departPos="2.10" departSpeed="9.09" departDelay="0.00" arrival="617.00" arrivalLane="E10_0" arrivalPos="26.86" arrivalSpeed="11.84" duration="548.00" routeLength="6035.84" waitingTime="25.00" waitingCount="2" stopTime="0.00" timeLoss="67.15" rerouteNo="0" devices="tripinfo_C_22" vType="typeC" speedFactor="0.91" vaporized=""/>
    <tripinfo id="B_16" depart="53.00" departLane="E7_0" departPos="2.10" departSpeed="5.68" departDelay="0.00" arrival="619.00" arrivalLane="E9_0" arrivalPos="25.59" arrivalSpeed="10.50" duration="566.00" routeLength="6036.58" waitingTime="46.00" waitingCount="5" stopTime="0.00" timeLoss="70.22" rerouteNo="1" devices="tripinfo_B_16" vType="typeB" speedFactor="0.88" vaporized=""/>
    <tripinfo id="C_23" depart="71.00" departLane="E8_0" departPos="2.10" departSpeed="3.68" departDelay="0.00" arrival="619.00" arrivalLane="E10_0" arrivalPos="26.86" arrivalSpeed="11.90" duration="548.00" routeLength="6035.84" waitingTime="25.00" waitingCount="2" stopTime="0.00" timeLoss="71.21" rerouteNo="0" devices="tripinfo_C_23" vType="typeC" speedFactor="0.91" vaporized=""/>
    <tripinfo id="C_24" depart="75.00" departLane="E8_0" departPos="2.10" departSpeed="5.09" departDelay="0.00" arrival="620.00" arrivalLane="E10_0" arrivalPos="26.86" arrivalSpeed="10.61" duration="545.00" routeLength="6035.84" waitingTime="25.00" waitingCount="2" stopTime="0.00" timeLoss="82.00" rerouteNo="0" devices="tripinfo_C_24" vType="typeC" speedFactor="0.94" vaporized=""/>
    <tripinfo id="B_17" depart="54.00" departLane="E7_0" departPos="2.10" departSpeed="1.99" departDelay="0.00" arrival="621.00" arrivalLane="E9_0" arrivalPos="25.59" arrivalSpeed="11.81" duration="567.00" routeLength="6036.58" waitingTime="37.00" waitingCount="2" stopTime="0.00" timeLoss="55.11" rerouteNo="1" devices="tripinfo_B_17" vType="typeB" speedFactor="0.85" vaporized=""/>
    <tripinfo id="C_25" depart="79.00" departLane="E8_0" departPos="2.10" departSpeed="10.95" departDelay="0.00" arrival="622.00" arrivalLane="E10_0" arrivalPos="26.86" arrivalSpeed="10.73" duration="543.00" routeLength="6035.84" waitingTime="25.00" waitingCount="2" stopTime="0.00" timeLoss="87.26" rerouteNo="0" devices="tripinfo_C_25" vType="typeC" speedFactor="0.96" vaporized=""/>
    <tripinfo id="C_26" depart="82.00" departLane="E8_0" departPos="2.10" departSpeed="8.00" departDelay="0.00" arrival="624.00" arrivalLane="E10_0" arrivalPos="26.86" arrivalSpeed="10.97" duration="542.00" routeLength="6035.84" waitingTime="25.00" waitingCount="2" stopTime="0.00" timeLoss="99.97" rerouteNo="0" devices="tripinfo_C_26" vType="typeC" speedFactor="0.98" vaporized=""/>
    <tripinfo id="B_18" depart="56.00" departLane="E7_0" departPos="2.10" departSpeed="4.65" departDelay="0.00" arrival="626.00" arrivalLane="E9_0" arrivalPos="25.59" arrivalSpeed="10.50" duration="570.00" routeLength="6036.58" waitingTime="38.00" waitingCount="3" stopTime="0.00" timeLoss="61.46" rerouteNo="1" devices="tripinfo_B_18" vType="typeB" speedFactor="0.85" vaporized=""/>
    <tripinfo id="C_27" depart="83.00" departLane="E8_0" departPos="2.10" departSpeed="8.60" departDelay="0.00" arrival="626.00" arrivalLane="E10_0" arrivalPos="26.86" arrivalSpeed="11.15" duration="543.00" routeLength="6035.84" waitingTime="25.00" waitingCount="2" stopTime="0.00" timeLoss="110.76" rerouteNo="0" devices="tripinfo_C_27" vType="typeC" speedFactor="1.01" vaporized=""/>
    <tripinfo id="B_19" depart="59.00" departLane="E7_0" departPos="2.10" departSpeed="8.98" departDelay="0.00" arrival="628.00" arrivalLane="E9_0" arrivalPos="25.59" arrivalSpeed="12.00" duration="569.00" routeLength="6036.58" waitingTime="38.00" waitingCount="3" stopTime="0.00" timeLoss="140.88" rerouteNo="1" devices="tripinfo_B_19" vType="typeB" speedFactor="1.02" vaporized=""/>
    <tripinfo id="C_28" depart="87.00" departLane="E8_0" departPos="2.10" departSpeed="7.85" departDelay="0.00" arrival="628.00" arrivalLane="E10_0" arrivalPos="26.86" arrivalSpeed="12.00" duration="541.00" routeLength="6035.84" waitingTime="25.00" waitingCount="2" stopTime="0.00" timeLoss="161.51" rerouteNo="0" devices="tripinfo_C_28" vType="typeC" speedFactor="1.15" vaporized=""/>
    <tripinfo id="C_29" depart="96.00" departLane="E8_0" departPos="2.10" departSpeed="1.47" departDelay="0.00" arrival="630.00" arrivalLane="E10_0" arrivalPos="26.86" arrivalSpeed="11.44" duration="534.00" routeLength="6035.84" waitingTime="25.00" waitingCount="2" stopTime="0.00" timeLoss="116.41" rerouteNo="0" devices="tripinfo_C_29" vType="typeC" speedFactor="1.04" vaporized=""/>
    <tripinfo id="C_30" depart="98.00" departLane="E8_0" departPos="2.10" departSpeed="3.94" departDelay="0.00" arrival="632.00" arrivalLane="E10_0" arrivalPos="26.86" arrivalSpeed="11.15" duration="534.00" routeLength="6035.84" waitingTime="25.00" waitingCount="2" stopTime="0.00" timeLoss="101.67" rerouteNo="0" devices="tripinfo_C_30" vType="typeC" speedFactor="1.01" vaporized=""/>
    <tripinfo id="B_20" depart="60.00" departLane="E7_0" departPos="2.10" departSpeed="3.86" departDelay="0.00" arrival="633.00" arrivalLane="E9_0" arrivalPos="25.59" arrivalSpeed="10.50" duration="573.00" routeLength="6036.58" waitingTime="39.00" waitingCount="4" stopTime="0.00" timeLoss="136.50" rerouteNo="1" devices="tripinfo_B_20" vType="typeB" speedFactor="1.00" vaporized=""/>
    <tripinfo id="C_31" depart="100.00" departLane="E8_0" departPos="2.10" departSpeed="5.25" departDelay="1.00" arrival="634.00" arrivalLane="E10_0" arrivalPos="26.86" arrivalSpeed="11.27" duration="534.00" routeLength="6035.84" waitingTime="25.00" waitingCount="2" stopTime="0.00" timeLoss="107.97" rerouteNo="0" devices="tripinfo_C_31" vType="typeC" speedFactor="1.02" vaporized=""/>
    <tripinfo id="B_21" depart="61.00" departLane="E7_0" departPos="2.10" departSpeed="3.79" departDelay="0.00" arrival="635.00" arrivalLane="E9_0" arrivalPos="25.59" arrivalSpeed="12.00" duration="574.00" routeLength="6036.58" waitingTime="39.00" waitingCount="4" stopTime="0.00" timeLoss="192.99" rerouteNo="1" devices="tripinfo_B_21" vType="typeB" speedFactor="1.14" vaporized=""/>
    <tripinfo id="C_32" depart="101.00" departLane="E8_0" departPos="2.10" departSpeed="3.63" departDelay="0.00" arrival="637.00" arrivalLane="E10_0" arrivalPos="26.86" arrivalSpeed="11.71" duration="536.00" routeLength="6035.84" waitingTime="21.00" waitingCount="2" stopTime="0.00" timeLoss="47.10" rerouteNo="0" devices="tripinfo_C_32" vType="typeC" speedFactor="0.89" vaporized=""/>
    <tripinfo id="A_19" depart="62.00" departLane="E6_0" departPos="2.10" departSpeed="2.08" departDelay="1.00" arrival="642.00" arrivalLane="E9_0" arrivalPos="25.59" arrivalSpeed="10.50" duration="580.00" routeLength="6035.74" waitingTime="63.00" waitingCount="8" stopTime="0.00" timeLoss="96.03" rerouteNo="0" devices="tripinfo_A_19" vType="typeA" speedFactor="0.90" vaporized=""/>
    <tripinfo id="B_22" depart="63.00" departLane="E7_0" departPos="2.10" departSpeed="5.05" departDelay="0.00" arrival="644.00" arrivalLane="E10_0" arrivalPos="26.86" arrivalSpeed="10.50" duration="581.00" routeLength="6037.61" waitingTime="44.00" waitingCount="5" stopTime="0.00" timeLoss="132.53" rerouteNo="1" devices="tripinfo_B_22" vType="typeB" speedFactor="0.97" vaporized=""/>
    <tripinfo id="A_20" depart="64.00" departLane="E6_0" departPos="2.10" departSpeed="2.37" departDelay="0.00" arrival="644.00" arrivalLane="E9_0" arrivalPos="25.59" arrivalSpeed="12.00" duration="580.00" routeLength="6035.74" waitingTime="63.00" waitingCount="8" stopTime="0.00" timeLoss="177.57" rerouteNo="0" devices="tripinfo_A_20" vType="typeA" speedFactor="1.08" vaporized=""/>
    <tripinfo id="B_23" depart="72.00" departLane="E7_0" departPos="2.10" departSpeed="3.07" departDelay="0.00" arrival="646.00" arrivalLane="E10_0" arrivalPos="26.86" arrivalSpeed="12.00" duration="574.00" routeLength="6037.61" waitingTime="44.00" waitingCount="5" stopTime="0.00" timeLoss="155.37" rerouteNo="1" devices="tripinfo_B_23" vType="typeB" speedFactor="1.04" vaporized=""/>