<?xml version="1.0" encoding="UTF-8"?>

<!-- generated on 2022-01-03 09:33:22 by Eclipse SUMO GUI Version v1_11_0+0661-437598ee861
<configuration xmlns:xsi="http://www.w3.org/2001/XMLSchema-instance" xsi:noNamespaceSchemaLocation="http://sumo.dlr.de/xsd/sumoConfiguration.xsd">

    <input>
        <net-file value="sumo_data/laneMerging2.net.xml"/>
        <route-files value="sumo_data/laneMerging.rou.xml"/>
        <additional-files value="sumo_data/laneMerging.add.xml"/>
    </input>

    <output>
        <tripinfo-output value="tripinfo_dp.xml"/>
    </output>

    <report>
        <no-warnings value="true"/>
        <duration-log.disable value="true"/>
        <no-step-log value="true"/>
    </report>

    <traci_server>
        <remote-port value="58929"/>
    </traci_server>

    <gui_only>
        <gui-settings-file value="sumo_data/laneMerging.view.xml"/>
        <start value="true"/>
    </gui_only>

</configuration>
-->

<tripinfos xmlns:xsi="http://www.w3.org/2001/XMLSchema-instance" xsi:noNamespaceSchemaLocation="http://sumo.dlr.de/xsd/tripinfo_file.xsd">
    <tripinfo id="B_1" depart="1.00" departLane="B_0" departPos="2.10" departSpeed="13.12" departDelay="0.00" arrival="412.00" arrivalLane="Y_0" arrivalPos="26.86" arrivalSpeed="14.72" duration="411.00" routeLength="6037.61" waitingTime="0.00" waitingCount="0" stopTime="0.00" timeLoss="0.07" rerouteNo="3" devices="tripinfo_B_1" vType="typeB" speedFactor="1.06" vaporized=""/>
    <tripinfo id="C_1" depart="3.00" departLane="C_0" departPos="2.10" departSpeed="8.44" departDelay="0.00" arrival="428.00" arrivalLane="Y_0" arrivalPos="26.86" arrivalSpeed="12.84" duration="425.00" routeLength="6035.84" waitingTime="0.00" waitingCount="0" stopTime="0.00" timeLoss="2.06" rerouteNo="0" devices="tripinfo_C_1" vType="typeC" speedFactor="1.03" vaporized=""/>
    <tripinfo id="A_1" depart="3.00" departLane="A_0" departPos="2.10" departSpeed="0.64" departDelay="0.00" arrival="438.00" arrivalLane="X_0" arrivalPos="25.59" arrivalSpeed="12.97" duration="435.00" routeLength="6035.74" waitingTime="0.00" waitingCount="0" stopTime="0.00" timeLoss="4.49" rerouteNo="0" devices="tripinfo_A_1" vType="typeA" speedFactor="1.01" vaporized=""/>
    <tripinfo id="B_2" depart="2.00" departLane="B_0" departPos="2.10" departSpeed="9.29" departDelay="0.00" arrival="466.00" arrivalLane="Y_0" arrivalPos="26.86" arrivalSpeed="13.03" duration="464.00" routeLength="6037.61" waitingTime="0.00" waitingCount="0" stopTime="0.00" timeLoss="0.29" rerouteNo="2" devices="tripinfo_B_2" vType="typeB" speedFactor="0.94" vaporized=""/>
    <tripinfo id="B_3" depart="3.00" departLane="B_0" departPos="2.10" departSpeed="7.39" departDelay="0.00" arrival="467.00" arrivalLane="X_0" arrivalPos="25.59" arrivalSpeed="15.04" duration="464.00" routeLength="6036.58" waitingTime="0.00" waitingCount="0" stopTime="0.00" timeLoss="62.10" rerouteNo="1" devices="tripinfo_B_3" vType="typeB" speedFactor="1.08" vaporized=""/>
    <tripinfo id="B_4" depart="4.00" departLane="B_0" departPos="2.10" departSpeed="7.99" departDelay="0.00" arrival="470.00" arrivalLane="Y_0" arrivalPos="26.86" arrivalSpeed="14.53" duration="466.00" routeLength="6037.61" waitingTime="0.00" waitingCount="0" stopTime="0.00" timeLoss="49.39" rerouteNo="1" devices="tripinfo_B_4" vType="typeB" speedFactor="1.05" vaporized=""/>
    <tripinfo id="B_5" depart="5.00" departLane="B_0" departPos="2.10" departSpeed="6.86" departDelay="0.00" arrival="471.00" arrivalLane="X_0" arrivalPos="25.59" arrivalSpeed="13.03" duration="466.00" routeLength="6036.58" waitingTime="0.00" waitingCount="0" stopTime="0.00" timeLoss="2.11" rerouteNo="1" devices="tripinfo_B_5" vType="typeB" speedFactor="0.94" vaporized=""/>
    <tripinfo id="B_6" depart="6.00" departLane="B_0" departPos="2.10" departSpeed="5.65" departDelay="0.00" arrival="474.00" arrivalLane="Y_0" arrivalPos="26.86" arrivalSpeed="12.80" duration="468.00" routeLength="6037.61" waitingTime="0.00" waitingCount="0" stopTime="0.00" timeLoss="43.98" rerouteNo="1" devices="tripinfo_B_6" vType="typeB" speedFactor="1.03" vaporized=""/>
    <tripinfo id="B_7" depart="8.00" departLane="B_0" departPos="2.10" departSpeed="7.44" departDelay="0.00" arrival="478.00" arrivalLane="X_0" arrivalPos="25.59" arrivalSpeed="12.87" duration="470.00" routeLength="6036.58" waitingTime="0.00" waitingCount="0" stopTime="0.00" timeLoss="1.03" rerouteNo="1" devices="tripinfo_B_7" vType="typeB" speedFactor="0.93" vaporized=""/>
    <tripinfo id="B_8" depart="9.00" departLane="B_0" departPos="2.10" departSpeed="4.02" departDelay="0.00" arrival="480.00" arrivalLane="Y_0" arrivalPos="26.86" arrivalSpeed="13.08" duration="471.00" routeLength="6037.61" waitingTime="0.00" waitingCount="0" stopTime="0.00" timeLoss="8.63" rerouteNo="1" devices="tripinfo_B_8" vType="typeB" speedFactor="0.94" vaporized=""/>
    <tripinfo id="B_9" depart="10.00" departLane="B_0" departPos="2.10" departSpeed="4.01" departDelay="0.00" arrival="483.00" arrivalLane="X_0" arrivalPos="25.59" arrivalSpeed="13.99" duration="473.00" routeLength="6036.58" waitingTime="0.00" waitingCount="0" stopTime="0.00" timeLoss="45.34" rerouteNo="1" devices="tripinfo_B_9" vType="typeB" speedFactor="1.02" vaporized=""/>
    <tripinfo id="C_2" depart="4.00" departLane="C_0" departPos="2.10" departSpeed="3.05" departDelay="0.00" arrival="499.00" arrivalLane="Y_0" arrivalPos="26.86" arrivalSpeed="11.67" duration="495.00" routeLength="6035.84" waitingTime="0.00" waitingCount="0" stopTime="0.00" timeLoss="3.13" rerouteNo="0" devices="tripinfo_C_2" vType="typeC" speedFactor="0.89" vaporized=""/>
    <tripinfo id="C_3" depart="5.00" departLane="C_0" departPos="2.10" departSpeed="0.07" departDelay="0.00" arrival="518.00" arrivalLane="Y_0" arrivalPos="26.86" arrivalSpeed="11.43" duration="513.00" routeLength="6035.84" waitingTime="0.00" waitingCount="0" stopTime="0.00" timeLoss="5.00" rerouteNo="0" devices="tripinfo_C_3" vType="typeC" speedFactor="0.86" vaporized=""/>
    <tripinfo id="C_4" depart="7.00" departLane="C_0" departPos="2.10" departSpeed="1.21" departDelay="0.00" arrival="519.00" arrivalLane="Y_0" arrivalPos="26.86" arrivalSpeed="11.43" duration="512.00" routeLength="6035.84" waitingTime="0.00" waitingCount="0" stopTime="0.00" timeLoss="124.30" rerouteNo="0" devices="tripinfo_C_4" vType="typeC" speedFactor="1.12" vaporized=""/>
    <tripinfo id="C_5" depart="10.00" departLane="C_0" departPos="2.10" departSpeed="4.02" departDelay="2.00" arrival="522.00" arrivalLane="Y_0" arrivalPos="26.86" arrivalSpeed="11.61" duration="512.00" routeLength="6035.84" waitingTime="0.00" waitingCount="0" stopTime="0.00" timeLoss="15.67" rerouteNo="0" devices="tripinfo_C_5" vType="typeC" speedFactor="0.88" vaporized=""/>
    <tripinfo id="C_6" depart="12.00" departLane="C_0" departPos="2.10" departSpeed="0.42" departDelay="3.00" arrival="523.00" arrivalLane="Y_0" arrivalPos="26.86" arrivalSpeed="10.57" duration="511.00" routeLength="6035.84" waitingTime="0.00" waitingCount="0" stopTime="0.00" timeLoss="46.05" rerouteNo="0" devices="tripinfo_C_6" vType="typeC" speedFactor="0.94" vaporized=""/>
    <tripinfo id="C_7" depart="14.00" departLane="C_0" departPos="2.10" departSpeed="2.13" departDelay="4.00" arrival="525.00" arrivalLane="Y_0" arrivalPos="26.86" arrivalSpeed="12.25" duration="511.00" routeLength="6035.84" waitingTime="0.00" waitingCount="0" stopTime="0.00" timeLoss="80.11" rerouteNo="0" devices="tripinfo_C_7" vType="typeC" speedFactor="1.01" vaporized=""/>
    <tripinfo id="C_8" depart="16.00" departLane="C_0" departPos="2.10" departSpeed="2.45" departDelay="3.00" arrival="531.00" arrivalLane="Y_0" arrivalPos="26.86" arrivalSpeed="10.50" duration="515.00" routeLength="6035.84" waitingTime="1.00" waitingCount="1" stopTime="0.00" timeLoss="40.49" rerouteNo="0" devices="tripinfo_C_8" vType="typeC" speedFactor="0.92" vaporized=""/>
    <tripinfo id="A_2" depart="5.00" departLane="A_0" departPos="2.10" departSpeed="2.46" departDelay="1.00" arrival="532.00" arrivalLane="X_0" arrivalPos="25.59" arrivalSpeed="11.20" duration="527.00" routeLength="6035.74" waitingTime="0.00" waitingCount="0" stopTime="0.00" timeLoss="3.38" rerouteNo="0" devices="tripinfo_A_2" vType="typeA" speedFactor="0.83" vaporized=""/>
    <tripinfo id="C_9" depart="18.00" departLane="C_0" departPos="2.10" departSpeed="2.92" departDelay="4.00" arrival="533.00" arrivalLane="Y_0" arrivalPos="26.86" arrivalSpeed="12.00" duration="515.00" routeLength="6035.84" waitingTime="1.00" waitingCount="1" stopTime="0.00" timeLoss="55.65" rerouteNo="0" devices="tripinfo_C_9" vType="typeC" speedFactor="0.95" vaporized=""/>
    <tripinfo id="A_3" depart="7.00" departLane="A_0" departPos="2.10" departSpeed="2.93" departDelay="1.00" arrival="534.00" arrivalLane="X_0" arrivalPos="25.59" arrivalSpeed="12.70" duration="527.00" routeLength="6035.74" waitingTime="0.00" waitingCount="0" stopTime="0.00" timeLoss="127.70" rerouteNo="0" devices="tripinfo_A_3" vType="typeA" speedFactor="1.09" vaporized=""/>
    <tripinfo id="C_10" depart="20.00" departLane="C_0" departPos="2.10" departSpeed="3.00" departDelay="4.00" arrival="534.00" arrivalLane="Y_0" arrivalPos="26.86" arrivalSpeed="11.25" duration="514.00" routeLength="6035.84" waitingTime="1.00" waitingCount="1" stopTime="0.00" timeLoss="144.67" rerouteNo="0" devices="tripinfo_C_10" vType="typeC" speedFactor="1.18" vaporized=""/>
    <tripinfo id="C_11" depart="22.00" departLane="C_0" departPos="2.10" departSpeed="5.12" departDelay="4.00" arrival="536.00" arrivalLane="Y_0" arrivalPos="26.86" arrivalSpeed="11.05" duration="514.00" routeLength="6035.84" waitingTime="1.00" waitingCount="1" stopTime="0.00" timeLoss="76.44" rerouteNo="0" devices="tripinfo_C_11" vType="typeC" speedFactor="0.99" vaporized=""/>
    <tripinfo id="A_4" depart="9.00" departLane="A_0" departPos="2.10" departSpeed="3.87" departDelay="2.00" arrival="538.00" arrivalLane="X_0" arrivalPos="25.59" arrivalSpeed="10.30" duration="529.00" routeLength="6035.74" waitingTime="0.00" waitingCount="0" stopTime="0.00" timeLoss="113.60" rerouteNo="0" devices="tripinfo_A_4" vType="typeA" speedFactor="1.05" vaporized=""/>
    <tripinfo id="C_12" depart="23.00" departLane="C_0" departPos="2.10" departSpeed="3.39" departDelay="4.00" arrival="538.00" arrivalLane="Y_0" arrivalPos="26.86" arrivalSpeed="11.81" duration="515.00" routeLength="6035.84" waitingTime="1.00" waitingCount="1" stopTime="0.00" timeLoss="145.83" rerouteNo="0" devices="tripinfo_C_12" vType="typeC" speedFactor="1.18" vaporized=""/>
    <tripinfo id="A_5" depart="11.00" departLane="A_0" departPos="2.10" departSpeed="5.16" departDelay="3.00" arrival="540.00" arrivalLane="X_0" arrivalPos="25.59" arrivalSpeed="11.80" duration="529.00" routeLength="6035.74" waitingTime="0.00" waitingCount="0" stopTime="0.00" timeLoss="89.72" rerouteNo="0" devices="tripinfo_A_5" vType="typeA" speedFactor="0.99" vaporized=""/>
    <tripinfo id="C_13" depart="25.00" departLane="C_0" departPos="2.10" departSpeed="4.57" departDelay="5.00" arrival="541.00" arrivalLane="Y_0" arrivalPos="26.86" arrivalSpeed="11.79" duration="516.00" routeLength="6035.84" waitingTime="1.00" waitingCount="1" stopTime="0.00" timeLoss="31.85" rerouteNo="0" devices="tripinfo_C_13" vType="typeC" speedFactor="0.90" vaporized=""/>
    <tripinfo id="C_14" depart="26.00" departLane="C_0" departPos="2.10" departSpeed="2.61" departDelay="5.00" arrival="542.00" arrivalLane="Y_0" arrivalPos="26.86" arrivalSpeed="11.83" duration="516.00" routeLength="6035.84" waitingTime="1.00" waitingCount="1" stopTime="0.00" timeLoss="117.14" rerouteNo="0" devices="tripinfo_C_14" vType="typeC" speedFactor="1.09" vaporized=""/>
    <tripinfo id="C_15" depart="28.00" departLane="C_0" departPos="2.10" departSpeed="3.22" departDelay="5.00" arrival="544.00" arrivalLane="Y_0" arrivalPos="26.86" arrivalSpeed="11.07" duration="516.00" routeLength="6035.84" waitingTime="1.00" waitingCount="1" stopTime="0.00" timeLoss="79.50" rerouteNo="0" devices="tripinfo_C_15" vType="typeC" speedFactor="1.00" vaporized=""/>
    <tripinfo id="A_6" depart="12.00" departLane="A_0" departPos="2.10" departSpeed="3.49" departDelay="2.00" arrival="545.00" arrivalLane="X_0" arrivalPos="25.59" arrivalSpeed="10.50" duration="533.00" routeLength="6035.74" waitingTime="1.00" waitingCount="1" stopTime="0.00" timeLoss="157.40" rerouteNo="0" devices="tripinfo_A_6" vType="typeA" speedFactor="1.16" vaporized=""/>
    <tripinfo id="A_7" depart="14.00" departLane="A_0" departPos="2.10" departSpeed="1.75" departDelay="3.00" arrival="547.00" arrivalLane="X_0" arrivalPos="25.59" arrivalSpeed="12.00" duration="533.00" routeLength="6035.74" waitingTime="1.00" waitingCount="1" stopTime="0.00" timeLoss="86.23" rerouteNo="0" devices="tripinfo_A_7" vType="typeA" speedFactor="0.98" vaporized=""/>
    <tripinfo id="C_16" depart="30.00" departLane="C_0" departPos="2.10" departSpeed="4.18" departDelay="6.00" arrival="547.00" arrivalLane="Y_0" arrivalPos="26.86" arrivalSpeed="11.59" duration="517.00" routeLength="6035.84" waitingTime="1.00" waitingCount="1" stopTime="0.00" timeLoss="19.88" rerouteNo="0" devices="tripinfo_C_16" vType="typeC" speedFactor="0.88" vaporized=""/>
    <tripinfo id="C_17" depart="32.00" departLane="C_0" departPos="2.10" departSpeed="5.72" departDelay="6.00" arrival="548.00" arrivalLane="Y_0" arrivalPos="26.86" arrivalSpeed="11.23" duration="516.00" routeLength="6035.84" waitingTime="1.00" waitingCount="1" stopTime="0.00" timeLoss="87.79" rerouteNo="0" devices="tripinfo_C_17" vType="typeC" speedFactor="1.02" vaporized=""/>
    <tripinfo id="C_18" depart="33.00" departLane="C_0" departPos="2.10" departSpeed="1.97" departDelay="4.00" arrival="550.00" arrivalLane="Y_0" arrivalPos="26.86" arrivalSpeed="11.12" duration="517.00" routeLength="6035.84" waitingTime="1.00" waitingCount="1" stopTime="0.00" timeLoss="82.99" rerouteNo="0" devices="tripinfo_C_18" vType="typeC" speedFactor="1.00" vaporized=""/>
    <tripinfo id="A_8" depart="16.00" departLane="A_0" departPos="2.10" departSpeed="2.08" departDelay="4.00" arrival="552.00" arrivalLane="X_0" arrivalPos="25.59" arrivalSpeed="10.50" duration="536.00" routeLength="6035.74" waitingTime="2.00" waitingCount="2" stopTime="0.00" timeLoss="46.99" rerouteNo="0" devices="tripinfo_A_8" vType="typeA" speedFactor="0.89" vaporized=""/>
    <tripinfo id="C_19" depart="35.00" departLane="C_0" departPos="2.10" departSpeed="0.53" departDelay="5.00" arrival="553.00" arrivalLane="Y_0" arrivalPos="26.86" arrivalSpeed="11.77" duration="518.00" routeLength="6035.84" waitingTime="1.00" waitingCount="1" stopTime="0.00" timeLoss="32.93" rerouteNo="0" devices="tripinfo_C_19" vType="typeC" speedFactor="0.90" vaporized=""/>
    <tripinfo id="A_9" depart="18.00" departLane="A_0" departPos="2.10" departSpeed="4.77" departDelay="5.00" arrival="554.00" arrivalLane="X_0" arrivalPos="25.59" arrivalSpeed="12.00" duration="536.00" routeLength="6035.74" waitingTime="2.00" waitingCount="2" stopTime="0.00" timeLoss="36.81" rerouteNo="0" devices="tripinfo_A_9" vType="typeA" speedFactor="0.87" vaporized=""/>
    <tripinfo id="C_20" depart="37.00" departLane="C_0" departPos="2.10" departSpeed="2.30" departDelay="4.00" arrival="554.00" arrivalLane="Y_0" arrivalPos="26.86" arrivalSpeed="12.00" duration="517.00" routeLength="6035.84" waitingTime="1.00" waitingCount="1" stopTime="0.00" timeLoss="135.76" rerouteNo="0" devices="tripinfo_C_20" vType="typeC" speedFactor="1.14" vaporized=""/>
    <tripinfo id="A_10" depart="19.00" departLane="A_0" departPos="2.10" departSpeed="2.90" departDelay="3.00" arrival="555.00" arrivalLane="X_0" arrivalPos="25.59" arrivalSpeed="11.25" duration="536.00" routeLength="6035.74" waitingTime="2.00" waitingCount="2" stopTime="0.00" timeLoss="68.90" rerouteNo="0" devices="tripinfo_A_10" vType="typeA" speedFactor="0.93" vaporized=""/>
    <tripinfo id="B_10" depart="12.00" departLane="B_0" departPos="2.10" departSpeed="5.35" departDelay="0.00" arrival="557.00" arrivalLane="Y_0" arrivalPos="26.86" arrivalSpeed="10.50" duration="545.00" routeLength="6037.61" waitingTime="12.00" waitingCount="1" stopTime="0.00" timeLoss="18.38" rerouteNo="2" devices="tripinfo_B_10" vType="typeB" speedFactor="0.83" vaporized=""/>
    <tripinfo id="A_11" depart="21.00" departLane="A_0" departPos="2.10" departSpeed="3.80" departDelay="4.00" arrival="557.00" arrivalLane="X_0" arrivalPos="25.59" arrivalSpeed="12.75" duration="536.00" routeLength="6035.74" waitingTime="2.00" waitingCount="2" stopTime="0.00" timeLoss="158.80" rerouteNo="0" devices="tripinfo_A_11" vType="typeA" speedFactor="1.15" vaporized=""/>
    <tripinfo id="A_12" depart="23.00" departLane="A_0" departPos="2.10" departSpeed="5.06" departDelay="4.00" arrival="558.00" arrivalLane="X_0" arrivalPos="25.59" arrivalSpeed="12.75" duration="535.00" routeLength="6035.74" waitingTime="2.00" waitingCount="2" stopTime="0.00" timeLoss="108.03" rerouteNo="0" devices="tripinfo_A_12" vType="typeA" speedFactor="1.02" vaporized=""/>
    <tripinfo id="B_11" depart="15.00" departLane="B_0" departPos="2.10" departSpeed="3.51" departDelay="0.00" arrival="559.00" arrivalLane="Y_0" arrivalPos="26.86" arrivalSpeed="12.00" duration="544.00" routeLength="6037.61" waitingTime="12.00" waitingCount="1" stopTime="0.00" timeLoss="159.35" rerouteNo="5" devices="tripinfo_B_11" vType="typeB" speedFactor="1.13" vaporized=""/>
    <tripinfo id="A_13" depart="24.00" departLane="A_0" departPos="2.10" departSpeed="3.35" departDelay="3.00" arrival="559.00" arrivalLane="X_0" arrivalPos="25.59" arrivalSpeed="12.75" duration="535.00" routeLength="6035.74" waitingTime="2.00" waitingCount="2" stopTime="0.00" timeLoss="112.98" rerouteNo="0" devices="tripinfo_A_13" vType="typeA" speedFactor="1.03" vaporized=""/>
    <tripinfo id="B_12" depart="17.00" departLane="B_0" departPos="2.10" departSpeed="6.63" departDelay="0.00" arrival="560.00" arrivalLane="Y_0" arrivalPos="26.86" arrivalSpeed="12.00" duration="543.00" routeLength="6037.61" waitingTime="12.00" waitingCount="1" stopTime="0.00" timeLoss="110.19" rerouteNo="7" devices="tripinfo_B_12" vType="typeB" speedFactor="1.01" vaporized=""/>
    <tripinfo id="A_14" depart="26.00" departLane="A_0" departPos="2.10" departSpeed="4.46" departDelay="3.00" arrival="561.00" arrivalLane="X_0" arrivalPos="25.59" arrivalSpeed="13.30" duration="535.00" routeLength="6035.74" waitingTime="2.00" waitingCount="2" stopTime="0.00" timeLoss="117.50" rerouteNo="0" devices="tripinfo_A_14" vType="typeA" speedFactor="1.04" vaporized=""/>
    <tripinfo id="B_13" depart="18.00" departLane="B_0" departPos="2.10" departSpeed="5.01" departDelay="0.00" arrival="562.00" arrivalLane="Y_0" arrivalPos="26.86" arrivalSpeed="13.50" duration="544.00" routeLength="6037.61" waitingTime="12.00" waitingCount="1" stopTime="0.00" timeLoss="172.19" rerouteNo="9" devices="tripinfo_B_13" vType="typeB" speedFactor="1.17" vaporized=""/>
    <tripinfo id="B_14" depart="19.00" departLane="B_0" departPos="2.10" departSpeed="3.77" departDelay="0.00" arrival="563.00" arrivalLane="Y_0" arrivalPos="26.86" arrivalSpeed="13.50" duration="544.00" routeLength="6037.61" waitingTime="12.00" waitingCount="1" stopTime="0.00" timeLoss="96.65" rerouteNo="10" devices="tripinfo_B_14" vType="typeB" speedFactor="0.97" vaporized=""/>
    <tripinfo id="A_15" depart="28.00" departLane="A_0" departPos="2.10" departSpeed="5.95" departDelay="3.00" arrival="563.00" arrivalLane="X_0" arrivalPos="25.59" arrivalSpeed="11.81" duration="535.00" routeLength="6035.74" waitingTime="2.00" waitingCount="2" stopTime="0.00" timeLoss="23.03" rerouteNo="0" devices="tripinfo_A_15" vType="typeA" speedFactor="0.85" vaporized=""/>
    <tripinfo id="B_15" depart="21.00" departLane="B_0" departPos="2.10" departSpeed="1.03" departDelay="1.00" arrival="564.00" arrivalLane="Y_0" arrivalPos="26.86" arrivalSpeed="13.50" duration="543.00" routeLength="6037.61" waitingTime="12.00" waitingCount="1" stopTime="0.00" timeLoss="148.35" rerouteNo="12" devices="tripinfo_B_15" vType="typeB" speedFactor="1.10" vaporized=""/>
    <tripinfo id="A_16" depart="29.00" departLane="A_0" departPos="2.10" departSpeed="4.45" departDelay="3.00" arrival="564.00" arrivalLane="X_0" arrivalPos="25.59" arrivalSpeed="12.89" duration="535.00" routeLength="6035.74" waitingTime="2.00" waitingCount="2" stopTime="0.00" timeLoss="162.75" rerouteNo="0" devices="tripinfo_A_16" vType="typeA" speedFactor="1.17" vaporized=""/>
    <tripinfo id="A_17" depart="31.00" departLane="A_0" departPos="2.10" departSpeed="5.93" departDelay="3.00" arrival="565.00" arrivalLane="X_0" arrivalPos="25.59" arrivalSpeed="12.89" duration="534.00" routeLength="6035.74" waitingTime="2.00" waitingCount="2" stopTime="0.00" timeLoss="137.22" rerouteNo="0" devices="tripinfo_A_17" vType="typeA" speedFactor="1.10" vaporized=""/>
    <tripinfo id="B_16" depart="23.00" departLane="B_0" departPos="2.10" departSpeed="1.06" departDelay="2.00" arrival="566.00" arrivalLane="Y_0" arrivalPos="26.86" arrivalSpeed="13.29" duration="543.00" routeLength="6037.61" waitingTime="12.00" waitingCount="1" stopTime="0.00" timeLoss="87.85" rerouteNo="13" devices="tripinfo_B_16" vType="typeB" speedFactor="0.96" vaporized=""/>
    <tripinfo id="B_17" depart="25.00" departLane="B_0" departPos="2.10" departSpeed="3.13" departDelay="3.00" arrival="567.00" arrivalLane="Y_0" arrivalPos="26.86" arrivalSpeed="14.41" duration="542.00" routeLength="6037.61" waitingTime="12.00" waitingCount="1" stopTime="0.00" timeLoss="122.44" rerouteNo="15" devices="tripinfo_B_17" vType="typeB" speedFactor="1.04" vaporized=""/>
    <tripinfo id="A_18" depart="32.00" departLane="A_0" departPos="2.10" departSpeed="4.43" departDelay="2.00" arrival="567.00" arrivalLane="X_0" arrivalPos="25.59" arrivalSpeed="12.83" duration="535.00" routeLength="6035.74" waitingTime="2.00" waitingCount="2" stopTime="0.00" timeLoss="98.06" rerouteNo="0" devices="tripinfo_A_18" vType="typeA" speedFactor="1.00" vaporized=""/>
    <tripinfo id="B_18" depart="27.00" departLane="B_0" departPos="2.10" departSpeed="4.17" departDelay="4.00" arrival="568.00" arrivalLane="Y_0" arrivalPos="26.86" arrivalSpeed="14.79" duration="541.00" routeLength="6037.61" waitingTime="12.00" waitingCount="1" stopTime="0.00" timeLoss="141.10" rerouteNo="16" devices="tripinfo_B_18" vType="typeB" speedFactor="1.09" vaporized=""/>
    <tripinfo id="A_19" depart="34.00" departLane="A_0" departPos="2.10" departSpeed="5.91" departDelay="0.00" arrival="568.00" arrivalLane="X_0" arrivalPos="25.59" arrivalSpeed="12.83" duration="534.00" routeLength="6035.74" waitingTime="2.00" waitingCount="2" stopTime="0.00" timeLoss="109.13" rerouteNo="0" devices="tripinfo_A_19" vType="typeA" speedFactor="1.02" vaporized=""/>
    <tripinfo id="B_19" depart="29.00" departLane="B_0" departPos="2.10" departSpeed="5.56" departDelay="5.00" arrival="570.00" arrivalLane="Y_0" arrivalPos="26.86" arrivalSpeed="12.51" duration="541.00" routeLength="6037.61" waitingTime="12.00" waitingCount="1" stopTime="0.00" timeLoss="57.45" rerouteNo="18" devices="tripinfo_B_19" vType="typeB" speedFactor="0.90" vaporized=""/>
    <tripinfo id="A_20" depart="36.00" departLane="A_0" departPos="2.10" departSpeed="7.76" departDelay="0.00" arrival="570.00" arrivalLane="X_0" arrivalPos="25.59" arrivalSpeed="12.57" duration="534.00" routeLength="6035.74" waitingTime="2.00" waitingCount="2" stopTime="0.00" timeLoss="85.15" rerouteNo="0" devices="tripinfo_A_20" vType="typeA" speedFactor="0.97" vaporized=""/>
    <tripinfo id="B_20" depart="30.00" departLane="B_0" departPos="2.10" departSpeed="4.06" departDelay="5.00" arrival="572.00" arrivalLane="X_0" arrivalPos="25.59" arrivalSpeed="11.87" duration="542.00" routeLength="6036.58" waitingTime="12.00" waitingCount="1" stopTime="0.00" timeLoss="32.69" rerouteNo="19" devices="tripinfo_B_20" vType="typeB" speedFactor="0.85" vaporized=""/>
</tripinfos>
